LAMMPS (22 Aug 2018)
OMP_NUM_THREADS environment is not set. Defaulting to 1 thread. (../comm.cpp:87)
  using 1 OpenMP thread(s) per MPI task
#lammps script for united atom polymer simulation (full-scale run)

# 1. INITIALIZATION
#allows pair, bond, bending and dihedral interactions
atom_style molecular

  # periodic (video game) boundaries in all cartesian directions
boundary p p s

  # uses real units (instead of units based on pair potential parameters).  List of units used in manual
units metal

###########
# 2. ATOM DEFINITION
##########

   ##
   # Read in data from starting configuration file
   ##

#read_data lammps-AT-config

 #use to restart
read_restart RESTART
  restoring atom style molecular from restart
  orthogonal box = (0 0 -23.0029) to (20 20 146.861)
  1 by 2 by 12 MPI processor grid
  restoring pair style hybrid from restart
  restoring bond style harmonic from restart
  restoring angle style harmonic from restart
  restoring dihedral style opls from restart
  1198 atoms
  197 bonds
  96 angles
  95 dihedrals
  2 = max # of 1-2 neighbors
  2 = max # of 1-3 neighbors
  4 = max # of 1-4 neighbors
  6 = max # of special neighbors

   ##
   # Specify the nature of the bond interactions
   ##

bond_style harmonic
bond_coeff 1 19.51 1.54
bond_coeff 2 22.45 1.82
bond_coeff 3 10000.0 2.0
special_bonds lj 0.0 0.0 0.0 angle no dihedral no

angle_style harmonic
angle_coeff 1 2.683 114.00
angle_coeff 2 2.683 114.40

dihedral_style opls
dihedral_coeff * 0.06071 -0.011743 0.1363628 0.0

mass  1   14.00
mass  2   32.06
mass  3  196.97
mass  4  196.97


pair_style hybrid lj/cut 14.0 morse 14.0 eam
pair_coeff 1 1 lj/cut 0.00395 3.95 14.0
pair_coeff 2 2 lj/cut 0.01594 3.62 14.0
pair_coeff 3 3 eam Au_u3.eam
Reading potential file Au_u3.eam with DATE: 2007-06-11
pair_coeff 4 4 eam Au_u3.eam
#pair_coeff 1 2 lj/cut 0.0079 3.785 14.0
pair_coeff 1 2 lj/cut 0.0000 3.785 14.0
pair_coeff 1 3 lj/cut 0.0026 3.44 14.0
pair_coeff 1 4 lj/cut 0.00 3.44 14.0
pair_coeff 2 3 morse 0.828 1.378 2.903 14.0
pair_coeff 2 4 morse 0.000 1.378 2.903 14.0
pair_coeff 3 4 lj/cut 0.00 2.934 14.0


group freeze type 4
100 atoms in group freeze
fix startend freeze setforce 0.0 0.0 0.0



################
# 3.  Simulation Settings
###############

neighbor        2.0 bin
neigh_modify    every 1 delay 0 check yes



# Define some variables
variable Lx          equal xhi-xlo   # Ang
variable Ly          equal yhi-ylo   # Ang
variable Lz          equal zhi-zlo   # Ang

variable dz          equal ${Lz}/30  # Ang
variable dz          equal 169.863772754551/30  

variable zzlo        equal zlo  # Ang
variable zzhi        equal zhi  # Ang
variable vol         equal ${Lx}*${Ly}*${Lz}  # Ang^3
variable vol         equal 20*${Ly}*${Lz}  
variable vol         equal 20*20*${Lz}  
variable vol         equal 20*20*169.863772754551  
variable TEMP        equal 300.00 # K
variable TThi        equal 320.00 # K
variable TTlo        equal 280.00 # K
variable dt          equal 0.00025 # ps

timestep     ${dt}
timestep     0.00025

variable zlo1      equal ${zzlo}+${dz}
variable zlo1      equal -23.0028863772755+${dz}
variable zlo1      equal -23.0028863772755+5.66212575848503
variable zlo2      equal -6.0
variable zhi1      equal 129.0
variable zhi2      equal ${zzlo}+29*${dz}
variable zhi2      equal -23.0028863772755+29*${dz}
variable zhi2      equal -23.0028863772755+29*5.66212575848503

# heat layers

region          hot  block  INF INF INF INF ${zlo1} ${zlo2}
region          hot  block  INF INF INF INF -17.3407606187905 ${zlo2}
region          hot  block  INF INF INF INF -17.3407606187905 -6
region          cold block INF INF INF INF ${zhi1} ${zhi2}
region          cold block INF INF INF INF 129 ${zhi2}
region          cold block INF INF INF INF 129 141.19876061879
compute         Thot all temp/region hot
compute         Tcold all temp/region cold


# Second Equilibration
fix             1 all nve
fix             hot all langevin ${TThi} ${TThi}  0.005 59804  tally yes
fix             hot all langevin 320 ${TThi}  0.005 59804  tally yes
fix             hot all langevin 320 320  0.005 59804  tally yes
fix             cold all langevin ${TTlo} ${TTlo} 0.005 287859 tally yes
fix             cold all langevin 280 ${TTlo} 0.005 287859 tally yes
fix             cold all langevin 280 280 0.005 287859 tally yes
fix_modify      hot temp Thot
fix_modify      cold temp Tcold

variable        tdiff equal c_Thot-c_Tcold
thermo_style    custom step c_Thot c_Tcold f_hot f_cold v_tdiff
thermo            4000
run             800000
WARNING: Using a manybody potential with bonds/angles/dihedrals and special_bond exclusions (../pair.cpp:218)
Unused restart file peratom fix info:
  fix style: STORE, fix ID: layers_COMPUTE_STORE
Neighbor list info ...
  update every 1 steps, delay 0 steps, check yes
  max neighbors/atom: 2000, page size: 100000
  master list distance cutoff = 16
  ghost atom cutoff = 16
  binsize = 8, bins = 3 3 22
  4 neighbor lists, perpetual/occasional/extra = 4 0 0
  (1) pair lj/cut, perpetual, skip from (4)
      attributes: half, newton on
      pair build: skip
      stencil: none
      bin: none
  (2) pair morse, perpetual, skip from (4)
      attributes: half, newton on
      pair build: skip
      stencil: none
      bin: none
  (3) pair eam, perpetual, skip from (4)
      attributes: half, newton on
      pair build: skip
      stencil: none
      bin: none
  (4) neighbor class addition, perpetual
      attributes: half, newton on
      pair build: half/bin/newton
      stencil: half/bin/3d/newton
      bin: standard
Per MPI rank memory allocation (min/avg/max) = 8.668 | 9.273 | 10.17 Mbytes
Step c_Thot c_Tcold f_hot f_cold v_tdiff 
151201000    306.17053    298.67255 1.2881719e-17 -1.4337811e-17    7.4979749 
151204000    312.21393    286.64594   0.19288725  -0.47610063    25.567986 
151208000    313.39847    260.52555 -0.074717311   0.71673941    52.872918 
151212000    312.74597    289.66252   0.13254122   -1.8611868    23.083444 
151216000     325.6819    289.35401   -0.7693729  -0.63654069    36.327895 
151220000    354.04549    270.86975   -2.2932809  -0.45367734    83.175741 
151224000     352.0118    279.73784   -1.4936522  0.013796544    72.273964 
151228000    333.51285    299.24112  -0.14244706   0.19833623    34.271731 
151232000    331.56311    298.65922  -0.92145798   -1.1621615    32.903891 
151236000    317.55727    292.38018   -1.0423058   0.26861928    25.177085 
151240000     334.7177    289.76462   -1.1345622  -0.01469525    44.953082 
151244000    300.21925    296.40212  -0.36565142   0.39180171    3.8171254 
151248000    318.44729    279.90974  -0.26628044    1.5263007    38.537551 
151252000    338.46611    300.30247   -1.3954578   0.75626058    38.163644 
151256000    321.04746    274.19296  -0.64158467   0.28469609    46.854498 
151260000    327.94054    261.56288  0.039152035   0.74967236     66.37766 
151264000    331.03049    280.91525  0.042774433   0.21012426    50.115245 
151268000    318.14792    295.82203   0.91279625  -0.97171375    22.325887 
151272000    314.96745    295.35311    1.0508737   0.21356135     19.61434 
151276000     325.3602    300.20703   0.62049347   -1.7483221    25.153171 
151280000    302.75184     286.6313    1.5709854  -0.73329296    16.120537 
151284000    300.72717    299.63751    1.8645188   -1.4485644    1.0896608 
151288000    311.07088    282.63601    1.2507271  0.091302079    28.434866 
151292000     321.9737    273.05452   0.68974389    0.2082734    48.919181 
151296000    332.12469    293.41384  0.055812804   0.40613844    38.710846 
151300000    335.09459    265.42138  -0.14138337     1.066223    69.673211 
151304000     336.2469    246.15858   -1.4426693    1.3140901    90.088321 
151308000    302.84377     253.6316     1.375839    1.4939633    49.212171 
151312000    347.17623    282.69758   -1.5467832   0.48585623    64.478649 
151316000    335.14409    305.81404   -1.3589206  -0.74766638     29.33005 
151320000    327.49389    283.99815  -0.42265876    0.9824354    43.495738 
151324000    335.95832    294.09629   0.10782002 -0.082630901    41.862037 
151328000    315.06264    286.76913  -0.14270596  -0.55189178    28.293515 
151332000    335.60738    287.84856     -1.94896  -0.96110809    47.758817 
151336000     336.1172    281.51225   -1.1001019    -0.291755     54.60495 
151340000      329.493      275.419   -1.2002936   0.10396161    54.073998 
151344000    308.72554    290.31567   -1.3837061  -0.64902557    18.409867 
151348000    327.57563    293.73303   -1.1801659  0.090047654    33.842593 
151352000    349.04522    287.99633    -1.812707    -1.183094    61.048891 
151356000    304.36428    289.72301 0.0025531737   0.59299953    14.641268 
151360000    336.78066    272.09712  -0.39600559   0.77025155    64.683535 
151364000     353.1845    287.59257   -1.8166808   -1.0146626    65.591933 
151368000    320.61547    277.34431   -1.5494809     0.401258    43.271156 
151372000    352.75054    283.68837   -2.0618709   0.61726191    69.062169 
151376000    308.59202    282.24344    1.2287817   0.36149099    26.348589 
151380000    309.90194    268.18317   0.33030278   0.23841561    41.718774 
151384000    344.00512     306.3928  -0.13647281   -1.7054241    37.612313 
151388000     328.0401    274.17854    0.6588263   0.10555088    53.861565 
151392000    329.07447    291.34422   0.56120585   -1.2233487    37.730255 
151396000     309.1571    282.35231   0.76826191  -0.25857362    26.804788 
151400000    298.39939    270.09858   0.88005492 -0.072510012    28.300808 
151404000    322.87856    285.67709  -0.36427607   0.55725273    37.201471 
151408000    332.99202      283.428  -0.61862106   0.11099051    49.564022 
151412000    309.59455    289.13427  -0.48138643  -0.47408295     20.46028 
151416000    334.49224     276.8719   -1.8651209   -0.7918457    57.620332 
151420000    338.34972    267.19663  -0.51875763   0.24622889    71.153092 
151424000    323.33236    284.57559    -1.348893  -0.30317537    38.756766 
151428000    299.14814     276.3636  -0.64696259   -0.2223127    22.784538 
151432000    293.67295    262.09295   -1.0716422    1.2569434    31.579998 
151436000    319.65886    269.99851   -1.9196914  0.064573734    49.660346 
151440000    304.46273    267.92025   -1.0007407    1.3571648    36.542484 
151444000    331.73106    282.67673  -0.97670884  -0.39727578    49.054327 
151448000    308.47272    275.75543  -0.67585069  -0.39211333    32.717289 
151452000    329.02487    276.64115   -2.1577766   -1.1075556     52.38372 
151456000    294.15635    276.94001  -0.45201593  0.033639292    17.216342 
151460000    343.37965    271.44461   -2.7460875  -0.25933959    71.935043 
151464000    300.73445    281.78688   -2.0676441  -0.38566765    18.947571 
151468000    327.80475    297.33128   -3.3604946   -1.5240218    30.473473 
151472000    330.89441    269.65737   -2.4925366   -1.1024702    61.237041 
151476000    309.23905    278.06848   -1.0908337  -0.62677148    31.170573 
151480000    320.10391    284.69674   -2.1154507 -0.011289212    35.407169 
151484000    328.38771    272.52853   -1.8426783 -0.024069451    55.859185 
151488000    334.47184    258.49035   -1.8453043  -0.48407718    75.981482 
151492000    320.99761    255.44056   -1.7924518  -0.39161544    65.557049 
151496000    324.35565    274.21438   -1.5872246  -0.51851743    50.141268 
151500000    328.52759    300.17187    -1.797536   -2.4518163    28.355719 
151504000    328.44801    262.81574   -2.2273902  -0.44912774    65.632269 
151508000    313.39246    276.12973   -1.7320578   -0.3629309    37.262736 
151512000    319.59642    282.73095   -1.0787144  -0.97503784    36.865471 
151516000    332.25685    266.47472   0.14335422   0.60222555    65.782122 
151520000    285.48213    274.22978   0.99464448  -0.72968573    11.252358 
151524000    317.28135    285.45938  -0.57104263  -0.73133432    31.821967 
151528000    315.41963    298.04298  -0.48199737  -0.82068428     17.37665 
151532000    325.91287    289.19297  0.092648225  -0.79488822    36.719898 
151536000     334.9605     283.9001  -0.74009098  -0.32096193    51.060396 
151540000    329.51543    288.65922   0.12218097   -1.4221172    40.856212 
151544000    337.51978    294.43816   -1.0595639   -1.3891298    43.081621 
151548000    309.38314    278.91792   -1.0815473  -0.29794108    30.465214 
151552000    319.57082    282.77925   -0.8296873  -0.81883232    36.791571 
151556000    359.76338    283.56103   -3.1818928   -1.4185669    76.202345 
151560000     328.9923    270.19166  -0.53497265  -0.18797328    58.800649 
151564000     314.5988    282.39663  -0.52365363    -1.246697    32.202169 
151568000    319.70788     274.3985   -1.0487013   -1.2757799    45.309383 
151572000    306.84426    283.48685   0.29758651  -0.50994155    23.357406 
151576000     315.9981     282.2883  0.041697611   -0.3367646    33.709795 
151580000    314.75738     283.3081  0.070151442  -0.42506521    31.449285 
151584000    326.19311    253.23041  -0.88245029     1.403138    72.962704 
151588000    320.54492    285.61175  -0.43131856  -0.63511692    34.933172 
151592000    310.52365    288.27119 -0.0080603341  -0.68211145    22.252456 
151596000    332.25138    271.37117  -0.98877205  0.052130218    60.880207 
151600000    334.72229    288.90171   -1.4848137  -0.87312169    45.820589 
151604000    290.34088    272.54349   0.21767561   0.25599496    17.797397 
151608000    336.06946    283.39555   0.06168883  -0.91350365     52.67391 
151612000    301.07147    273.50197   0.87244513   0.50881318      27.5695 
151616000    327.70399    277.28275   0.66590745    0.1049958     50.42124 
151620000    317.74079    267.81327   0.26566028    1.3529808    49.927518 
151624000     303.6347    252.73722  -0.40532916   0.24959414    50.897478 
151628000    300.61705    269.47272   0.14464319   0.27127437    31.144329 
151632000    329.63684     321.4781  -0.57338778   -2.8119705     8.158739 
151636000      324.607    275.67066  -0.82330623   0.36720238    48.936334 
151640000    303.27358    265.35259  -0.36541025    1.0359856    37.920991 
151644000    313.66063    276.26362  -0.31931047   0.76244201     37.39701 
151648000    317.04963    281.92141   -1.5921668    1.1121315    35.128214 
151652000    322.07449    267.85923   -1.4451591    1.8326254    54.215262 
151656000    335.67982    274.48816   -1.4647028    1.2270581    61.191652 
151660000    349.04883    274.77752   -1.9755834    1.4262431    74.271308 
151664000    329.04663     280.8206  -0.83702189   0.85432637    48.226025 
151668000    318.43219    272.53802   -1.6623605     1.478164    45.894173 
151672000    298.16426    281.69325   0.52956097   0.36382263    16.471005 
151676000    322.56852    286.83014   0.37242603 -0.055518357    35.738379 
151680000    330.89826    281.02187  -0.87531239   0.55236342    49.876392 
151684000    306.48159    250.91163   0.89431618    1.7406379    55.569958 
151688000    309.06877    274.74395  -0.80726672   0.42983108    34.324813 
151692000    323.12001    270.03468   -1.1544959   0.63676492    53.085338 
151696000    302.95901    275.48321  -0.93462126   0.30007684    27.475803 
151700000     315.8849    295.67371   -0.2628197   -1.4881904    20.211186 
151704000    309.45357    262.65427  -0.88828939   0.59268052    46.799304 
151708000    330.03332      259.916    -1.658743    1.1614072    70.117322 
151712000    320.85089     262.1839  -0.74081944   0.22720145    58.666985 
151716000    310.43359    291.87047   0.32845938 0.0062490335    18.563126 
151720000    343.45514    296.11044  -0.95795994   -1.6259245    47.344699 
151724000     292.1961    276.70731   0.71519398  -0.68117074    15.488787 
151728000    322.87642    292.80468   0.52203589   -1.0166403    30.071736 
151732000    310.72755    253.79073   0.26241088   0.67133697    56.936812 
151736000    340.01646    296.96207   -1.2863882  -0.62644039    43.054394 
151740000    315.75751    299.98908    -1.270481   -1.3673228    15.768434 
151744000    326.93661    266.35529   -1.4520099  -0.16201795    60.581315 
151748000    308.67958    287.18998   0.42064242     -1.07655    21.489596 
151752000    299.13424    271.25939    1.7880915  -0.42233351    27.874846 
151756000    311.69416    255.51507   0.40957199    0.6781193     56.17909 
151760000    324.57451     314.0987   0.42895475   -1.3459602    10.475818 
151764000    323.79942    255.25282  -0.10813152   0.08741872    68.546596 
151768000     304.2383    261.45979   0.45596363   -1.5943287     42.77851 
151772000    313.76163    276.17335   0.78045451  -0.82160878    37.588281 
151776000    334.12096    271.11581   0.23123325   -0.6743526    63.005149 
151780000    314.91506    295.66971   0.74178375   -2.4142166    19.245353 
151784000    327.29186     280.1266   0.76003285   0.22002574    47.165259 
151788000    297.72375    258.43932    1.6466778   0.42768306    39.284426 
151792000    340.70102    288.94409    0.3934011  -0.75047845    51.756926 
151796000    327.92991    280.44986   -1.1680166 -0.010946734    47.480044 
151800000    318.16015    287.81345  -0.58577728  -0.75533081      30.3467 
151804000    299.41343    286.70303  -0.47438665  -0.56517479      12.7104 
151808000    322.23024    267.63081   -1.3351655  -0.40530465     54.59943 
151812000    326.17394    265.40148   -1.0632272 -0.095920781    60.772466 
151816000    311.44585     289.3794  -0.31232639  -0.68348257    22.066447 
151820000    345.23226    267.79991   -2.1454057  -0.84394666    77.432347 
151824000    349.37392    276.08026    -1.127886  -0.49808086    73.293666 
151828000    330.96464    273.07191   -1.1283688    0.5398176    57.892738 
151832000    316.32531    281.45672   0.11619606   0.29956131    34.868593 
151836000    326.58897    292.72256  -0.53287531  0.088011553    33.866411 
151840000    307.99205    283.01556   -1.4994582  -0.58324003    24.976493 
151844000    320.17914    288.45791  -0.26248667  -0.63696929    31.721234 
151848000     316.1762    297.48756  -0.61801784    -0.633164     18.68864 
151852000    300.15569    296.21899   0.40567289   -1.2931782    3.9367062 
151856000     331.8469    274.50944   -1.9186745  -0.48820289     57.33746 
151860000      321.874    285.78515   -1.9575838  -0.43362269    36.088851 
151864000    332.75493     291.9788   -1.4946633   -1.1683047    40.776121 
151868000    308.72931    272.43267  -0.75492152  -0.26334861     36.29664 
151872000    284.30361    274.79263     1.349987   0.31547076    9.5109737 
151876000    297.10549    296.12721   0.72623275   -0.9832704   0.97827436 
151880000    336.40228    285.47991   0.36326382   -1.3549709    50.922372 
151884000    329.91602    278.64511  -0.53922136   -0.2035463     51.27091 
151888000    318.40701    249.46257  -0.11694816    1.1532244    68.944441 
151892000    332.63106    278.15673  -0.28313726  -0.07002209    54.474327 
151896000    295.61193    288.15788    1.5023888   -0.6077348    7.4540546 
151900000    343.07994    297.84078    0.4035128   -1.0262443    45.239157 
151904000    314.53595    280.42802  -0.79167662  -0.15629147    34.107933 
151908000    331.83018    272.14522  -0.94909072  -0.23697686    59.684962 
151912000    329.07044     287.1791   -1.8393409   0.29548154    41.891331 
151916000      325.982    286.76722   -1.1459222  -0.07078226     39.21478 
151920000      355.685    271.47628   -2.3066141   0.56106376    84.208718 
151924000    345.53512    292.42903   -1.3232266   -1.5390262    53.106091 
151928000     304.2841    271.10761  -0.26075373 -0.068142436    33.176497 
151932000    318.06086    289.06042  -0.27009535   0.30797868    29.000436 
151936000    320.71844    300.81627    -0.229559   0.23257386    19.902173 
151940000    322.51152    262.14073   -0.4932058 -0.045339451    60.370792 
151944000    334.81749    274.90327   -1.5104275   0.11775325    59.914219 
151948000    329.98204    297.54711   -1.2722088  -0.21439167    32.434932 
151952000    344.15828    279.91831     -1.49247   0.23930861    64.239969 
151956000    338.31045    296.01231   -2.0199273  -0.80515675    42.298144 
151960000    319.48524    303.68827   -1.8251482   -1.1902089    15.796973 
151964000    343.71682    295.21792   -2.5820168  -0.63591489    48.498898 
151968000    310.30087    269.66814   -1.4208297   0.68342334    40.632723 
151972000    334.41091     300.5583   -1.8844935  -0.75312348    33.852604 
151976000    331.16093    281.19285   -1.3024554  -0.20321789    49.968079 
151980000    291.12339    273.91213  -0.34086094   0.90050802    17.211256 
151984000    330.66505    264.22475   -2.2331095   0.84197544    66.440296 
151988000    303.31054    250.59109   -1.2097881    1.2112116    52.719443 
151992000    314.25257    287.32106   -1.4596242   -0.7038456    26.931514 
151996000    308.25148    285.45426  -0.85032051  -0.44012126    22.797215 
152000000    316.36845    275.73026   -1.3673889   0.66714881    40.638195 
152001000    301.56046    275.51931  -0.64428032    0.2757897     26.04115 
Loop time of 470.792 on 24 procs for 800000 steps with 1198 atoms

Performance: 36.704 ns/day, 0.654 hours/ns, 1699.266 timesteps/s
89.9% CPU use with 24 MPI tasks x 1 OpenMP threads

MPI task timing breakdown:
Section |  min time  |  avg time  |  max time  |%varavg| %total
---------------------------------------------------------------
Pair    | 94.812     | 249.58     | 371.83     | 496.5 | 53.01
Bond    | 0.52002    | 1.286      | 1.9538     |  37.8 |  0.27
Neigh   | 2.1536     | 2.1927     | 2.2996     |   3.2 |  0.47
Comm    | 31.941     | 104.76     | 187.76     | 486.2 | 22.25
Output  | 0.0061803  | 0.0090012  | 0.020455   |   2.7 |  0.00
Modify  | 28.259     | 99.595     | 182.85     | 573.1 | 21.15
Other   |            | 13.38      |            |       |  2.84

Nlocal:    49.9167 ave 177 max 0 min
Histogram: 16 0 0 0 0 4 0 0 0 4
Nghost:    1338.92 ave 3021 max 199 min
Histogram: 12 0 0 0 4 0 0 0 0 8
Neighs:    2176.21 ave 11812 max 0 min
Histogram: 19 1 0 0 0 0 0 0 0 4

Total # of neighbors = 52229
Ave neighs/atom = 43.5968
Ave special neighs/atom = 0.647746
Neighbor list builds = 1435
Dangerous builds = 0
unfix 1


# PRODUCTION

fix             1 all nve
fix             hot all langevin ${TThi} ${TThi}  0.005 59804  tally yes
fix             hot all langevin 320 ${TThi}  0.005 59804  tally yes
fix             hot all langevin 320 320  0.005 59804  tally yes
fix             cold all langevin ${TTlo} ${TTlo} 0.005 287859 tally yes
fix             cold all langevin 280 ${TTlo} 0.005 287859 tally yes
fix             cold all langevin 280 280 0.005 287859 tally yes
fix_modify      hot temp Thot
fix_modify      cold temp Tcold

variable        tdiff equal c_Thot-c_Tcold
thermo          4000

dump gigo all atom 4000 dump.cords_xyz.dat
dump_modify gigo scale no
dump vfgigo all custom 4000 dump.velo.dat id vx vy vz fx fy fz

# thermal conductivity calculation
# # reset langevin thermostats to zero energy accumulation
#
compute         ke all ke/atom
variable        temp atom c_ke/1.5/0.00008617333262

fix             ave all ave/time 100 40 4000 v_tdiff ave running
thermo_style    custom step temp c_Thot c_Tcold f_hot f_cold v_tdiff f_ave

#compute         layers all chunk/atom bin/1d z lower 0.05 units reduced
compute         layers all chunk/atom bin/1d z lower ${dz} units box
compute         layers all chunk/atom bin/1d z lower 5.66212575848503 units box
fix             2 all ave/chunk  100 40 4000 layers v_temp file profile.langevin

run             16000000
WARNING: Using a manybody potential with bonds/angles/dihedrals and special_bond exclusions (../pair.cpp:218)
Neighbor list info ...
  update every 1 steps, delay 0 steps, check yes
  max neighbors/atom: 2000, page size: 100000
  master list distance cutoff = 16
  ghost atom cutoff = 16
  binsize = 8, bins = 3 3 22
  4 neighbor lists, perpetual/occasional/extra = 4 0 0
  (1) pair lj/cut, perpetual, skip from (4)
      attributes: half, newton on
      pair build: skip
      stencil: none
      bin: none
  (2) pair morse, perpetual, skip from (4)
      attributes: half, newton on
      pair build: skip
      stencil: none
      bin: none
  (3) pair eam, perpetual, skip from (4)
      attributes: half, newton on
      pair build: skip
      stencil: none
      bin: none
  (4) neighbor class addition, perpetual
      attributes: half, newton on
      pair build: half/bin/newton
      stencil: half/bin/3d/newton
      bin: standard
Per MPI rank memory allocation (min/avg/max) = 10.13 | 10.2 | 10.3 Mbytes
Step Temp c_Thot c_Tcold f_hot f_cold v_tdiff f_ave 
152001000    257.83611    301.56046    275.51931 1.9862941e-18 -2.0669472e-17     26.04115            0 
152004000    274.59471    338.22346    297.48796  -0.67079997  -0.82034451    40.735505            0 
152008000    266.90666    331.35416    273.87598    0.9301363  -0.16741457     57.47818    46.238626 
152012000    280.27337    328.34352    291.94115   0.11448461   -0.9023763    36.402366    38.304029 
152016000    275.70621    340.91876    288.97776   -1.6731582   0.40021158    51.941001    38.735203 
152020000    266.71843     329.2637    277.23128   -1.2121594  -0.21607123     52.03242    38.902536 
152024000     264.3497    308.28753    289.25736   0.60228816  0.015239487    19.030164    38.840789 
152028000    268.80461     326.5598    289.82884   0.31660758  -0.51779457    36.730959    39.586777 
152032000    269.34097    324.32172     288.1497  -0.13872924   -1.3439907    36.172019       39.286 
152036000    279.09136    328.84579     284.2497   -1.1473077   -1.0097561    44.596092    39.161087 
152040000    263.83488    323.70986    264.39884   -1.0456896  -0.44736555    59.311021    38.835665 
152044000    284.81179    346.34819    293.21155   -1.9924032   -1.9055432    53.136642     38.45852 
152048000    275.17964    318.85556    299.53652   -1.6394479   -2.4972463    19.319037     38.74756 
152052000    277.75359    317.52859    308.32233    -1.390214   -1.4909422    9.2062544    38.891881 
152056000    266.15899    328.52028    267.15968  -0.14241405  -0.82127917    61.360597     39.05053 
152060000    274.25547    338.89279    277.33686    -1.493146  -0.31289661    61.555929    39.198571 
152064000    267.14619     316.2218     275.4385  -0.99630682  -0.44158617    40.783304    39.632595 
152068000    279.69711    318.28545     307.6264   -1.3166079   -2.1510001     10.65905    39.775822 
152072000    260.85991    295.37222    271.53194  -0.63766154  -0.17640957    23.840281    40.009864 
152076000    272.34438    311.64354    289.26023   -1.2363078   -2.2515175    22.383318    40.018425 
152080000     262.6159     319.7779    267.17592   0.43041258  -0.44565084    52.601981    40.049224 
152084000    266.23189    310.79217     305.3803   0.02253923   -2.1199431     5.411875    40.147823 
152088000    271.44873    321.06155    289.88281   0.10065971   -1.7940396     31.17874    39.893584 
152092000    263.00169    297.20996     276.0447   0.75601556   -0.5715826    21.165256    40.134854 
152096000    280.03548    338.98407    287.50645  -0.28827914   -1.4438021    51.477615    40.344517 
152100000    258.07113    309.62977    285.54655   0.70084165   -0.6734755    24.083216    40.330968 
152104000    268.40291    344.43569    260.09181  -0.69929394   0.22455074    84.343882    40.781532 
152108000    268.33507    309.43207    282.93191   0.63222621  -0.12763177    26.500162    40.602649 
152112000    271.56091    322.95065     265.2987  -0.44659952   0.61508861    57.651954    40.741689 
152116000    264.09489    325.69441    282.76656  -0.46121628  -0.42231283    42.927847    40.700619 
152120000    261.47853    294.31336     270.3929    1.7505826   0.94448889    23.920455    40.679745 
152124000    267.07401    315.21783    264.22452   0.05776157    1.1932373    50.993308    40.694826 
152128000    268.28282    307.39128    292.57273   0.78778974   0.14932935    14.818545    40.312871 
152132000    269.50216    315.82851    298.52158   0.55838291  -0.52234067     17.30693    40.305828 
152136000    270.46016    307.59533     301.3737    1.1797673  -0.87384353    6.2216353    40.168839 
152140000    265.89854    331.96315    279.20812  -0.18848273 -0.0017385971    52.755033    40.145776 
152144000    268.89787    328.45924    269.03925  -0.30845227    1.1924399    59.419989    40.177525 
152148000    269.26998    330.86574    290.31784   -0.6955769   0.47105997    40.547902    40.180255 
152152000    268.57601    317.86544    306.57707  -0.68514855  -0.77255536    11.288365    40.185115 
152156000    266.98246    311.80934    260.34834  -0.85477783    1.7425763    51.461007    40.202102 
152160000    263.71883    299.31107     308.4398  -0.26919589  -0.46906897   -9.1287321    40.187479 
152164000     269.4972    315.22346    279.10968  -0.74416886   0.21971924    36.113778    40.191985 
152168000    271.72969    344.33312    273.81903  -0.62973577    1.6668438    70.514086     40.32502 
152172000    266.21925    308.77589    284.23769   0.25380881  -0.61232664    24.538199    40.384731 
152176000    275.84919    355.74694    273.45425   -1.9530322   -0.1592892    82.292693    40.410818 
152180000    267.83437    318.94803    289.11704  -0.18169036  -0.65346575    29.830982    40.414841 
152184000    267.77717    321.26133    274.75772  -0.73983438 -0.094508696    46.503608    40.276806 
152188000    272.92893    325.61692    292.15285  -0.79835766   -1.5313401    33.464069    40.371794 
152192000    275.48759    331.22255    288.88743    -1.756171   -1.6563702    42.335121    40.282046 
152196000    268.65964    326.90272    260.26297   -1.6693667  0.082570043    66.639749    40.246057 
152200000    260.03368    297.97397    279.60514   -1.4332731  -0.37446289    18.368831    40.331631 
152204000    267.90729    308.63857    273.97798  -0.27569802  0.049563378    34.660593    40.282576 
152208000    268.86045    320.43347     271.4942   -1.8657685   0.95498544    48.939278    40.438309 
152212000    266.58274    298.56088    287.26283   0.53549098 -0.0082217037    11.298043    40.481736 
152216000     276.3513     340.3655     268.2827   -2.3834788   0.67601812    72.082791    40.534303 
152220000    273.37222    326.33563    283.54418  -0.59213235   0.22202742    42.791442    40.494701 
152224000    267.70827    322.85167    274.31882  -0.32489362   0.59385038    48.532848    40.463123 
152228000    268.99693    322.15974    287.70521    0.1974708   0.28501896    34.454533    40.444048 
152232000    254.63979    290.97533    284.94176   0.82640323  0.011411906    6.0335723    40.499953 
152236000    263.01339    307.04857     266.2212  -0.93873647   0.69714892    40.827376     40.48494 
152240000    262.73358    320.40584    244.66864  -0.67721339    2.5471619    75.737194    40.555416 
152244000     270.7656    323.64098    286.19909   -2.3118844   0.39658179    37.441888    40.562693 
152248000    270.68727    318.00667    278.85342  -0.93608357    1.1634136    39.153246    40.524518 
152252000    271.61916    321.76851    288.33361  -0.92045324  0.034021095    33.434902    40.451021 
152256000    264.26063    328.80954    262.89246  -0.83682213    1.2107804    65.917083    40.403613 
152260000    269.09686    317.58274    288.35889  -0.73694554  0.019466839     29.22385     40.37754 
152264000    265.03314    298.65696    294.62935  -0.18073833   0.32313747    4.0276152    40.269594 
152268000     265.9796    300.11076    308.47666  -0.84329373  -0.91287955   -8.3658964    40.276517 
152272000    265.18078    309.21591    257.73926    -1.359685    1.2061789    51.476645    40.234591 
152276000    272.15454    327.32258    278.59411    -2.664499   0.67675433    48.728473    40.235367 
152280000    269.16235    335.52031    259.18979   -1.8737775   0.86449995    76.330523    40.187078 
152284000    266.42779    309.23787    273.05792    -1.676265   0.64509825    36.179951     40.18001 
152288000    261.73213    310.07871    266.20457   -2.3172375    1.9836117    43.874141    40.136253 
152292000    264.18888    291.47218    290.41091  -0.61881308   0.64106783    1.0612694    40.117906 
152296000    271.24263    340.02542    277.55177    -1.443774   0.69599851    62.473648    40.185272 
152300000    266.40468    323.20069     277.2691    -2.950859   0.67948922    45.931593    40.197268 
152304000    266.93511    322.02835    287.21241  -0.27631573    0.8545081    34.815937    40.210595 
152308000    272.19096     327.8278    280.85003   -1.0851921   0.95768837    46.977773    40.181139 
152312000    268.68737    331.79686    272.38938   -1.9197118   0.87788011    59.407484    40.271504 
152316000    263.80959    309.81271    276.81126 -0.011462682  -0.48902782    33.001455    40.258017 
152320000    270.65741    311.38147    289.22328  -0.60360737   0.29252739    22.158194    40.273355 
152324000    262.70711    314.74065    278.98397  0.094597889 -0.035826409    35.756686    40.220195 
152328000    263.70371     309.3765    295.32966  -0.90450591   0.15132069    14.046842     40.23486 
152332000    261.74751    318.30677     276.2557 -0.091845224    1.1946321    42.051071     40.18573 
152336000    266.91893    311.18063    315.81511  -0.33731665  -0.92255818   -4.6344861    40.171298 
152340000     262.5383    315.64948    268.87902  -0.70468057    1.8352579    46.770456     40.17311 
152344000    270.58193    319.24485     285.8932  -0.10576365    0.7358775    33.351655    40.189785 
152348000    269.26899    338.44874    278.48981  -0.92370387    1.1027092    59.958929    40.128594 
152352000    257.65756    295.68118    280.87125   0.81445188     1.268257    14.809939    40.068763 
152356000     269.2845     324.8185    271.70082   -2.3819858   0.77622166    53.117685    40.104205 
152360000    269.12044    331.21384    278.61078   -2.2017932   0.31600872    52.603062    40.084547 
152364000    273.61651    315.85541    311.77194   -1.1143188  -0.11940639    4.0834699    40.064228 
152368000    260.80416    299.70426    296.87412   0.41605187  -0.15481327    2.8301395    40.050084 
152372000     267.3515    304.95831    283.11693   0.47681351   0.84550005    21.841375     40.04749 
152376000    266.80897    318.85186    274.42334   -0.3434864 -0.0046681264    44.428522    40.033636 
152380000    260.91141      295.556    279.98705    0.1373038    0.4843304    15.568946    39.988569 
152384000     265.9694    313.68898    272.60714   -2.3907966   0.23071708    41.081836     39.97949 
152388000    269.90146     327.7358    284.12115   -2.6397881 0.00035902921    43.614654    40.001326 
152392000     270.4151    318.40363    291.96113   -1.6703504   0.29210252    26.442499    39.994689 
152396000    264.72232    318.87521    281.96487  -0.97601763    1.1719121    36.910338    40.055197 
152400000    272.53485    297.70483    297.37504   -1.2338877   0.12921822   0.32979075    40.056743 
152404000    281.68567     347.0915    284.76957    -3.263025 -0.025121066    62.321928    40.082942 
152408000      292.056    341.39629    300.79947   -2.7480484   -1.4471651    40.596817    40.080859 
152412000    275.20481     315.8396    290.17349   -2.0097408  -0.42202432    25.666112    40.074072 
152416000    280.07657     313.2087    291.47092   -1.0482628  -0.95145619    21.737777    40.067331 
152420000    272.72143    318.27418    284.59871   -1.9626338  -0.41579093    33.675469    40.040706 
152424000    256.69763    308.47976      266.832  -0.67810692   0.59521068     41.64776    40.031435 
152428000    265.50677    289.13305    285.39069  -0.39882117   -0.3005106     3.742358    40.021293 
152432000    264.72696    313.87946    267.91535  -0.46409992   0.75594859    45.964113    39.991995 
152436000    277.32543    331.01672    292.40862   -1.4950165   0.28280651    38.608099    40.005824 
152440000    269.40901     329.8098     278.4301   -1.8932637     1.160629    51.379697    40.048809 
152444000    270.21161    338.86657    268.74436   -2.2205864    1.3068913    70.122207    40.044175 
152448000     275.3548    324.26823     280.2276   -1.4676932   0.89569752    44.040637     40.04691 
152452000    267.19565    314.88691    268.18643   -2.0449285    1.4109556    46.700476    40.044957 
152456000    272.38456    314.20847    271.61665   -1.7240603   0.70625088    42.591823    40.062043 
152460000    268.14422     328.1152    266.69244   -1.4067245    1.4671277    61.422759     40.08239 
152464000    268.72082    325.36306    274.06908   -1.9498295   0.90706725    51.293984    40.101888 
152468000    273.31277    325.62766    279.39762   -1.6597975    1.1615878    46.230043     40.09687 
152472000    268.24825    313.61648    283.79683  -0.84313141    1.2069498    29.819647    40.082447 
152476000    272.15094    318.89253    274.05783   -2.0654285    1.1635672    44.834699    40.102256 
152480000    275.09287    329.10194    286.71877   -1.7692646    1.3277632    42.383172     40.12229 
152484000     257.1183    307.27579    263.91594   -1.0221902    2.6369144    43.359852    40.095605 
152488000    268.56582    309.30563    277.87343   -1.8862299    1.4678553      31.4322    40.121735 
152492000    261.71534    317.87844    263.88335  -0.73092147    2.1179239     53.99509    40.136223 
152496000    267.22653    324.04067    269.59532   -1.3829117   0.80949574    54.445348     40.11805 
152500000     260.3146    311.00886    263.46923 -0.030245405   0.85573792    47.539629     40.10117 
152504000    273.90777    315.06737    288.25102  -0.66499822   -1.2185194    26.816352    40.096085 
152508000     268.0389    307.71139    286.14769   -1.5930323   0.55982577    21.563701    40.118438 
152512000    267.89869    331.41671      281.988  -0.90375441   0.78544396    49.428708      40.1503 
152516000    266.08303    309.07305    276.17093  -0.70076465    1.0403483    32.902121     40.12153 
152520000    265.01516      293.805    297.12322  -0.81439393  -0.63355942    -3.318224    40.143799 
152524000     267.0467    306.29154    290.97363   -2.1648577  -0.25007575    15.317906    40.147202 
152528000    269.98643    311.81669    275.06073    -1.446938   0.26067103    36.755958    40.138773 
152532000    270.21674    322.24486    273.88833   -2.9177781  -0.19763515    48.356534    40.152567 
152536000    276.11749    312.41999    294.67537   -2.6815102  -0.59072247     17.74462    40.153906 
152540000    265.79521    278.50237    296.24591   -1.0367595    0.3022716   -17.743538    40.097773 
152544000    272.44967    323.06399    276.35168    -4.177312    0.1658764    46.712305    40.114159 
152548000    263.61766    312.37484    272.12708   -1.3698638 -0.087249961    40.247764    40.136132 
152552000    269.07011    318.52404    289.39087   -2.3811506   0.12193786    29.133163    40.092717 
152556000    265.21613    314.60239    279.24397   -1.5114202    1.1179445    35.358413    40.089405 
152560000    265.66142    316.41834    276.09013   -1.2633731   0.89486838     40.32821    40.083568 
152564000    272.27359    324.69577     271.9236   -2.9180787   0.78862938    52.772174    40.103148 
152568000    268.85171    306.29731    278.38512  -0.98481804    1.5651583    27.912193    40.103692 
152572000    274.97592    315.66919     304.6356   -1.4477211  -0.34798414    11.033594    40.120242 
152576000    262.34227    309.00678     261.2288   -1.5451612    1.4975711    47.777984    40.151582 
152580000    264.41959    314.36594    255.76461   -1.4750573     2.193489     58.60133    40.151188 
152584000    270.98663     325.8706      272.334   -2.6647751    1.1442187      53.5366    40.136815 
152588000     278.5576    332.77046      286.904   -3.0329248  -0.37807464     45.86646    40.116474 
152592000    260.45698    301.33702    273.28739   -1.2888942    1.8850884    28.049634    40.114261 
152596000    266.42739    314.27882    278.00433   -2.1961897    1.9089342    36.274482    40.135391 
152600000    273.53182    324.33431    277.24011   -3.7481503    1.3712243    47.094202    40.183327 
152604000    275.96868    336.33416    295.61215   -3.1793032    1.0783278    40.722012    40.171723 
152608000    262.74841    311.95705    286.82764   -1.0700538   0.79553697    25.129407    40.170253 
152612000    265.62481    307.59551    266.85276   -1.4085326      1.92045    40.742751    40.161768 
152616000    277.14685    337.23602    297.71428   -3.6306297   0.41708442    39.521737    40.145567 
152620000    271.33075    329.37135    283.94831   -3.1856488   0.89830939     45.42304    40.162727 
152624000    266.08038    307.69425    267.54282   -2.0886674    2.3811349    40.151436    40.160865 
152628000    271.96771    318.20047    289.27171   -2.7508758    1.0712157    28.928756    40.134165 
152632000    268.24303    305.44001    291.56251    -2.926754    1.0723196    13.877506    40.124485 
152636000    275.08091    346.99906    282.94365   -4.3056799    1.6445376    64.055411    40.143535 
152640000    267.57719    327.06505    254.63668   -2.3721155    2.8223989    72.428376    40.144932 
152644000    262.01307    297.38248    284.92979   -1.5977058    1.4035563    12.452691    40.134328 
152648000    269.40605    336.78168     279.0814   -3.0000159    2.7455381    57.700277    40.133717 
152652000     266.8584    311.14405    285.75724   -1.2887701     3.009856    25.386815    40.111327 
152656000    256.16081    311.70854    259.29959   -3.2296081    4.3279266    52.408948    40.101945 
152660000    271.03328    321.36998      289.628   -3.6255137    2.8403624    31.741982    40.122114 
152664000    271.03402    338.20866    282.97345   -3.4122685    1.8678409    55.235208       40.117 
152668000    263.09837    319.98912    285.19526   -3.1472769    3.3850951    34.793867    40.102666 
152672000    268.11206     324.9461    275.49048   -2.9863457    3.1045452     49.45562     40.12134 
152676000    261.90464    332.88383    266.69708    -4.219378    3.0141361     66.18675    40.126277 
152680000    255.92402    311.69124    270.90489   -3.8090988    3.1830768    40.786356    40.120849 
152684000    260.82063    320.06289    244.46522   -3.2235597    3.7204015    75.597668    40.098547 
152688000    271.64925    341.68406    276.54782   -4.4619942    2.1440401    65.136237    40.091186 
152692000    264.92478    329.28057    261.65617   -4.2047667    3.4564411    67.624405    40.060248 
152696000    274.26656    345.43689     288.7033   -4.9068196    1.3942218    56.733594    40.069356 
152700000    269.90058    304.23549    294.35367   -3.0099351    2.7249618    9.8818235     40.06845 
152704000    265.66525    292.84451    281.91943   -3.6234168    2.6568241    10.925081    40.067167 
152708000    264.49413    323.35982    266.91194   -3.1803246    2.9724137    56.447887    40.071549 
152712000    262.83759     301.6457    282.15024   -3.0458312    1.8440454    19.495463    40.085112 
152716000     262.8245    308.64859    290.24778   -2.6299935    1.9356041    18.400806    40.085374 
152720000     281.2564    323.34608    300.19304   -4.0519045    2.3067549    23.153045    40.074772 
152724000     267.4488    321.58266    283.88054   -2.8400498    2.8748672    37.702128    40.078917 
152728000    254.62684    269.20319    279.73678  -0.74545474    1.6042542   -10.533586    40.079243 
152732000    261.30404    306.31122    271.64204   -2.1331934    1.8899438    34.669181    40.068826 
152736000    265.80794    337.81233    252.52625   -3.2566413    3.6641141    85.286075    40.062004 
152740000    265.77926    319.04336    283.58389   -2.7524638    2.8847624    35.459461    40.059551 
152744000    268.86682    327.86504      268.341   -3.8064753    3.1853017    59.524042    40.049502 
152748000    265.91157    316.40116    271.90955     -3.27243    3.2945552    44.491608    40.043107 
152752000    262.90836    314.84557    279.00618   -3.3183718    1.8961365    35.839394    40.048222 
152756000    269.63617     327.6047      282.519   -2.7730616    2.3278635    45.085704    40.032753 
152760000    268.09904    313.63045    306.99554   -2.9775567   0.95127732    6.6349158    40.030029 
152764000     263.2528    314.95337    277.80095   -2.7032043    2.6964046    37.152421    40.034216 
152768000    264.95252    324.24444    290.29502   -3.6781409    2.1161676    33.949419    40.036549 
152772000    264.52944    318.39239    286.90009   -3.7740202    2.3374237      31.4923    40.020401 
152776000    267.01437    310.57066    288.32917   -2.7065093    2.3099474    22.241488    40.042536 
152780000     272.8726    317.53885    279.28843   -3.4857069    3.1757844    38.250414    40.034893 
152784000    271.93145    334.39742    282.86069   -3.9539498    2.2629755    51.536721     40.00937 
152788000    275.29063    325.45636    280.52696   -3.9860115    2.3064229    44.929401     40.00664 
152792000    270.15473    321.89047    280.00585   -4.1432553    2.3651226    41.884623    40.002859 
152796000    265.58087    306.47184    265.05068   -2.2323879    3.5491419    41.421164    40.011506 
152800000    274.18261    322.07563    273.59644   -3.2721939    3.5703664    48.479185    40.061898 
152804000    275.19623    325.00138    292.70498   -3.2433928    1.5267904     32.29639     40.04692 
152808000    268.91637     341.6274    275.31019   -3.5907058     2.232254    66.317218    40.027543 
152812000    259.68284    316.85246     276.1017   -3.3806499    2.6559327    40.750757    40.012464 
152816000      269.128    318.90954    275.55419   -3.0821603      3.66048    43.355348    40.018177 
152820000    265.70081    350.96012    249.47271   -4.1035343    4.0309141    101.48741    40.037806 
152824000    274.62974    336.70968    278.49568   -3.2968084    2.6016308    58.214006    40.033602 
152828000    265.17583    315.72153    289.99226   -2.8921216    2.9465302    25.729274    40.024036 
152832000    263.68888    333.44339    260.67037   -4.5933958    2.9526836    72.773024    40.027326 
152836000     275.9287    344.95374    276.17241    -4.198634    2.3978142    68.781331    40.025415 
152840000    272.41227    320.13112    287.33382   -3.2590573    1.8173152      32.7973    40.027902 
152844000    272.36261    328.34825    287.05738   -4.1195378     2.066221    41.290868    40.031938 
152848000    265.48354    308.29099     290.0405    -3.437316    2.2306921    18.250486    40.024563 
152852000    276.41536    327.28628    282.73868   -2.6389138    2.7776548    44.547603    40.011646 
152856000    271.12461    328.40136    284.91597   -3.8119109    2.2288352     43.48539    40.003808 
152860000    268.64647    307.41089     286.2316   -2.7118674    1.6682765    21.179285    40.008827 
152864000    267.31304    317.24227    261.23216   -3.7933309    2.6157028    56.010107     40.01129 
152868000    271.45144    296.05288    289.23458   -2.9342004    2.2297404    6.8183003    40.032609 
152872000    273.63905    327.42626    281.33834   -3.0417441    1.7262311    46.087926    40.022841 
152876000    273.84312    343.74546    271.82263   -3.5906502     2.971621    71.922833    40.011555 
152880000    268.18692    331.97631    273.93249    -3.968503    2.0208077    58.043819    40.029452 
152884000    272.94435    330.86729    290.55493   -3.7385195    1.6660874    40.312358    40.036914 
152888000    276.50835    314.44972    298.71036   -2.9400116   0.82714861    15.739359    40.031313 
152892000    269.13764    317.49833    287.06382   -3.9451036    2.3363716    30.434509    40.029467 
152896000     261.5442    311.70916    279.41947   -3.5496632    3.7124469    32.289691    40.021165 
152900000    258.52362    279.65071    293.28215   -1.4347168    2.5646313   -13.631446    40.013056 
152904000    265.82078     333.8719    261.64621   -4.8635865    4.0415409     72.22569    40.017124 
152908000    275.88587    328.07621    297.24737    -4.796848    2.0723198    30.828847    40.023136 
152912000    258.29846    295.65149    269.69827   -2.8861856    3.4214377    25.953225    40.023059 
152916000     273.5361    347.97037    275.82601   -4.3310519    2.7720754    72.144355    40.025757 
152920000    263.73861    318.37279    272.77401   -2.9641247      3.17776    45.598781    40.054765 
152924000    276.81633    348.64193    283.70345   -4.8049621    3.2661507    64.938473    40.069254 
152928000    265.64799    304.76605    298.76621   -3.5678498    1.7621966    5.9998456    40.045091 
152932000    262.67746    295.18168    256.66246   -1.4111518    4.3370366    38.519216    40.042445 
152936000    278.00497     329.9541    298.19344    -4.163176    2.7516734     31.76066    40.033333 
152940000    282.36594    344.57289    296.32254   -4.0859828    2.6722481    48.250352    40.036281 
152944000     261.1062    311.88469    263.85918   -2.4141942    4.1989733    48.025512    40.033166 
152948000    264.28724     317.0157    273.61731   -3.4425905    3.4704578    43.398396    40.017426 
152952000    270.63461    331.91265    293.55481   -4.2144609    2.8469427    38.357844    40.014351 
152956000    262.55324    322.38258    284.48573   -3.5184053    2.8398469    37.896853      40.0157 
152960000    274.37967    336.52839    287.14532    -4.013951    2.3789678     49.38307    40.027767 
152964000    275.26986    335.71191    296.78548   -3.2300723    2.4924639     38.92643    40.036293 
152968000    274.59779    322.67259    288.54327   -3.4591684    2.2977237    34.129319    40.035304 
152972000    271.54865    333.42047    286.51329   -5.0861158     3.420425    46.907182    40.028848 
152976000     268.0474    317.27265    287.17844   -3.2756974    2.7230061    30.094201     39.99877 
152980000    272.84313    319.07465    287.26053   -3.1063339    3.1208425    31.814124    39.983038 
152984000    261.75787     329.0352    270.57748   -3.1703107     3.771831    58.457714    40.002343 
152988000    258.54963    321.42551    272.37615    -3.901507    4.0102778    49.049361    40.012712 
152992000     256.0196    314.87314     271.9692   -2.3652679    4.1321777    42.903942    40.024506 
152996000    262.34355    304.28054    279.94001   -3.8372204    4.7901538    24.340529    40.012797 
153000000    272.19442    333.25999     279.3505   -3.0542841    4.0900881    53.909489    40.009036 
153004000    267.31391    317.26705    285.10109   -3.6524885    3.3348505    32.165967    40.037026 
153008000    267.68736    327.59026     282.6702   -3.8689005      4.96213    44.920061     40.03805 
153012000    267.22168    303.54891    292.88702   -1.6954293     4.123384    10.661889    40.019111 
153016000    264.39407    313.43407    279.70721   -3.1353372    3.7694614    33.726864    40.026031 
153020000    270.54464    332.81985    273.07745   -4.1648679    4.8704324    59.742398    40.010403 
153024000    254.59989    302.73999    276.13707   -2.8151524    4.3872934    26.602914    40.011578 
153028000    273.39379    339.60658    294.17391   -4.9317898    2.9220278     45.43267    40.019907 
153032000    258.83478    319.48342    292.46756    -3.569384    4.7290032    27.015862    40.000932 
153036000    253.97616    347.42103    242.55038   -4.6470744    5.4279308    104.87065    40.009863 
153040000    258.08269    307.65216    286.49827    -3.550331    4.6770197    21.153898    40.000163 
153044000      260.278    338.37354    273.44171   -4.5226134    4.5612824    64.931836    39.997106 
153048000    252.60096    325.79529    263.83129   -3.6860412    5.1853542    61.963998    40.003296 
153052000    272.93173    327.24133    290.39805   -5.1102009    3.4290989    36.843281    40.036829 
153056000    263.51555    322.90404    270.47752   -4.6835968    5.8417239    52.426515    40.041491 
153060000    273.06284    325.09306    305.57324   -4.0511546    3.0077477    19.519818    40.062346 
153064000    264.80273    322.83874    294.63462   -3.7685846    4.8161555    28.204122    40.061537 
153068000    251.52459    300.99344    270.56342   -2.5705796    5.7976063    30.430021    40.056536 
153072000    275.16454     344.1171    292.17347   -4.3201718    4.4760022    51.943636    40.049159 
153076000    269.59525    314.37271    286.53524   -3.3982167    4.2486101    27.837464    40.028638 
153080000    263.70715    323.81749    281.75888   -4.2547926     4.591074    42.058619    40.028029 
153084000    260.01852    302.63921    279.58058   -3.7024852     5.061513    23.058627    40.041598 
153088000    269.11476    319.06631    302.63877   -4.8512603    3.2757595    16.427547    40.063116 
153092000      265.801    312.81225    270.85533   -3.7928436      5.25878    41.956926    40.059886 
153096000    260.83543     327.8431    261.52356   -4.3198534    5.9076547    66.319544    40.073029 
153100000    266.60566    318.21958    282.92744   -5.0712295    4.8537672    35.292144     40.05196 
153104000    263.08812    324.65846    276.04991   -4.4350378    4.6674023    48.608544    40.063662 
153108000    262.68132    315.21543    281.92448   -5.1258782    3.9757843    33.290948    40.072467 
153112000    268.25195    331.48963    282.85424   -5.5512161    4.1476408    48.635395    40.070751 
153116000    265.01528    325.57037    284.29851   -5.1430526    4.0039393    41.271858    40.089585 
153120000    281.00236    345.54037    297.41727    -5.459241    4.4224007    48.123105    40.095135 
153124000    267.12626    345.82889    270.57436    -4.648217    5.0941146    75.254536    40.103694 
153128000    260.17875    300.86784     279.5403    -3.963074    3.6595287    21.327543    40.111864 
153132000    272.73649    324.87738    286.40321   -5.0994964    3.7363448    38.474174    40.129748 
153136000     259.8381     306.0612    272.28928   -3.8775686    3.6204726    33.771918    40.140787 
153140000    287.57225    376.25236    272.37374   -5.8872147    5.0004401    103.87863    40.138675 
153144000    268.13149    310.08268    292.38883   -3.8431334    4.3836376    17.693852    40.139069 
153148000    279.82436    360.09737    282.77635   -5.0295232    4.3756471    77.321013    40.149506 
153152000    262.46461      320.127     272.0025   -4.2201768    4.7863476      48.1245     40.14482 
153156000    267.33696    329.87948    268.48158   -3.3764461    5.1714786    61.397899     40.14808 
153160000    267.01263    316.62061    285.83843   -3.4891005     4.518973    30.782184    40.162572 
153164000    264.36433    318.87274    260.93368   -3.5768058    5.6578215    57.939061    40.151984 
153168000    275.87517    340.11489    282.59264   -6.0897685    3.8581099     57.52225    40.160966 
153172000    266.99456     313.6222    279.94089   -4.3922654    4.3975028    33.681307    40.156714 
153176000     267.8319    309.04677    287.71877    -3.378772    3.6783043    21.328006    40.160287 
153180000    270.60399    325.75568    295.53255   -4.6341733    3.6902629    30.223137    40.173689 
153184000    272.88795     319.0978    296.15216   -4.9193343    3.7875554    22.945649     40.16373 
153188000    268.41286    324.84953    287.04526   -5.6933546    4.0409534    37.804271    40.157119 
153192000    274.44702    340.56968    269.66753   -5.6848426    4.3082759    70.902158    40.177325 
153196000     271.0823    330.53615    283.45808    -7.043784    3.9246223    47.078071    40.154237 
153200000    260.10536    326.36504    265.37476   -6.4488851    4.0942451    60.990288    40.158523 
153204000    265.03754    340.97381    272.98175    -6.546729    4.2822639    67.992064    40.142405 
153208000    272.12792    308.03193    286.71996   -4.7856546    4.1525292    21.311976    40.130834 
153212000    269.39573    314.90407    274.41209   -5.1601628    3.6200959    40.491979    40.138966 
153216000    266.10924     320.1977    269.74937   -5.4493726    4.4496692    50.448323    40.133406 
153220000    269.58785    317.76315    289.08128   -5.4248772     4.831051    28.681868     40.12515 
153224000      267.022    321.84588    280.45985   -6.3142291    5.1453363    41.386026    40.124151 
153228000     275.6079     313.0842    289.31723   -6.1745264    4.3109268    23.766975    40.129705 
153232000     278.2341    343.28732    274.76372   -7.7654372    3.9971335    68.523601    40.111525 
153236000    268.11072    318.16819    282.13493   -7.7452301    3.8266962    36.033255     40.11567 
153240000    280.03133    321.85325    292.08917   -6.7424893    4.3056744     29.76408    40.115345 
153244000    268.39945    313.89005    277.16525   -4.8508336    4.5537439    36.724801    40.100037 
153248000    276.98245    332.38829    295.94995   -5.9838778     3.383653    36.438345    40.106196 
153252000    266.24527    323.07522    272.95607    -4.665796    4.6014669    50.119155    40.111677 
153256000    266.77429    297.37815     284.4249   -4.9554371    4.0521754    12.953256    40.105977 
153260000    275.61202    317.35925    318.49806   -6.1713103    2.7275797    -1.138806    40.092374 
153264000    274.89807    330.05376    278.84289   -6.4137399    3.9416314    51.210866    40.083574 
153268000    265.81014    293.92023    281.64397   -4.6210229    3.7553555    12.276266    40.075436 
153272000    264.67447    323.42484     275.9273    -6.517631    3.1653927    47.497536    40.060208 
153276000    276.16387    326.35147    281.31819   -6.0767103    3.3761569    45.033285     40.06074 
153280000    273.59546     321.6326    277.16729   -4.4469757    3.9778131    44.465307    40.069654 
153284000    269.88317    316.01339    282.26709   -7.5369226    4.1185655    33.746307     40.07271 
153288000     279.7927    320.75981    297.30493   -4.4489856    2.5997522    23.454879    40.076965 
153292000    271.76521    330.34974    281.30437   -5.0998673    3.8197677    49.045372    40.082811 
153296000    265.49159    323.49298    272.89646   -5.5553848    4.4178182    50.596525    40.086926 
153300000    263.10712    316.32019    281.16792   -4.9546411    5.0253593     35.15227    40.092655 
153304000    262.99629     331.5436    284.96481    -5.246324    2.9285387    46.578785    40.100384 
153308000    274.76099    342.95944    294.48709    -5.342366    3.3386346     48.47235    40.100013 
153312000    262.79204    317.09371    262.52687   -4.2804945    5.3816094    54.566838    40.090149 
153316000    264.98051    316.76403    275.04905   -5.6233105     5.275342     41.71498    40.089376 
153320000    264.59922    316.22175    279.14485   -5.8977888    5.3561948    37.076901    40.080213 
153324000    256.72324    314.16645    268.83753   -5.7098054     5.820892    45.328917    40.066887 
153328000    274.62511    344.14324    292.08791   -5.7692643    4.3005438     52.05533    40.077541 
153332000    276.32693    332.79329    296.32421   -5.2886184    4.8640102    36.469079    40.090806 
153336000    263.49602    305.71586    277.60535   -4.1776798     5.249723    28.110518    40.095486 
153340000     266.2708    317.80596    293.79918    -4.893095    4.9493806    24.006781    40.099631 
153344000    271.83613    313.98364    297.21851   -6.0709991    4.0416093    16.765126    40.099006 
153348000    253.65559    324.25739    245.11118     -5.85822    7.2989337    79.146209    40.098895 
153352000    266.07678    327.85522    268.48907   -4.6046325    5.9026744    59.366153    40.094094 
153356000    271.32813    322.53014     286.7774   -4.8834815    4.5283641    35.752745    40.085588 
153360000    264.77202    338.82224    268.28315   -5.1148134    5.1411428    70.539092    40.088013 
153364000    261.61787     335.1931    277.33497   -5.8801651    5.4049125     57.85813    40.089055 
153368000    262.90371    292.56116    282.50244   -5.4695898    5.0659991    10.058713    40.081046 
153372000    264.25698    325.74035    269.95171    -6.281635    4.9613314    55.788632    40.094752 
153376000    272.76393    325.51924    282.96011   -6.5461614    5.0424164     42.55913     40.10687 
153380000    267.76618    313.94687    289.13702   -5.4598137    5.3206489    24.809847    40.095278 
153384000     267.4695    327.11648    291.58146   -5.7913314    4.6414427    35.535022    40.103627 
153388000    269.41376    330.59626    275.51007   -5.9512232    5.3978162     55.08619     40.11149 
153392000    259.79876    312.60242    279.00697    -5.572317     5.154689    33.595454    40.108889 
153396000    265.94054    305.26256    298.44697   -5.3568297    3.6724394    6.8155953    40.112239 
153400000    271.59001    317.96701    298.39716   -5.7438343    5.1341266    19.569849    40.089308 
153404000    271.11913     329.3147    281.96934   -6.0634756    4.6008544    47.345359    40.096526 
153408000    260.35836    302.97869    261.54592   -4.4180227    6.5369631    41.432766     40.10127 
153412000    260.34551     313.8291    274.26707   -5.2613045    5.0694723    39.562033    40.099782 
153416000    275.44741    347.56637    278.64866   -5.3290262    5.2208648    68.917704    40.087439 
153420000    261.57054     302.9586    283.77576    -3.375987    4.3892635    19.182839    40.093828 
153424000    268.66103    310.15941     310.9236   -4.6652548    2.8864968  -0.76419493    40.091816 
153428000    257.58373    308.41112    278.58857   -4.0930519    4.3907877    29.822551    40.103225 
153432000    266.88837    315.07961    293.33769   -5.0974965    3.9942468    21.741921    40.121808 
153436000    277.22148    365.00007    290.29062   -7.9212735    4.3080494    74.709449     40.10792 
153440000    262.56994    311.29852    275.89597   -4.5462341    5.5292192    35.402551    40.104088 
153444000     268.4574    319.62942    302.74789   -4.2757735     4.224457    16.881536    40.094052 
153448000    267.06311    332.80569    287.02226   -5.0798588    4.1915867    45.783428    40.090391 
153452000    262.73813    321.77085    267.07357   -4.0016945    4.8842826    54.697275    40.090726 
153456000    276.78405    334.85883    285.21744    -5.111953    4.5986362    49.641387    40.094048 
153460000    263.07881    335.94308    270.29703   -4.5931867     4.372545    65.646053    40.107684 
153464000     260.7321     313.0157    265.56462   -3.3692006    5.0057383    47.451074    40.111249 
153468000    267.29223    308.12985    282.07314   -3.2322344    3.6836676    26.056704    40.116987 
153472000    271.84215    326.43041    295.72763   -4.6098724    2.8723214    30.702778    40.125916 
153476000    264.23995    313.81105    276.22438   -4.3120574    3.7263382    37.586673     40.12986 
153480000    269.77638    343.01535    268.44571   -4.7453394    4.9298447     74.56964    40.123594 
153484000     263.0406    329.06871    258.69411   -4.9932951      4.63676    70.374604    40.120129 
153488000    261.26514    328.55443    272.06195    -5.036037    4.3699266    56.492476    40.127453 
153492000    270.29188    315.27021    282.19495   -3.3750581    4.7755785    33.075256    40.134373 
153496000    256.32488    308.56425    261.47297   -3.9795591    6.4661668    47.091288    40.142071 
153500000    268.60587    331.99215    287.06012    -5.265527    4.7039487    44.932026    40.141903 
153504000    253.78749    302.74513    270.00402   -3.4611107    5.5269978    32.741114    40.145981 
153508000    269.84136    320.02009    293.85646   -4.6218543    3.3392612    26.163626    40.133544 
153512000    254.63036    306.30613    262.72678   -5.1622239    5.1527007    43.579341    40.135829 
153516000    261.68068    312.75923    269.33823   -5.5532019    4.5204308       43.421    40.137497 
153520000    264.36457     305.4759     286.0596   -4.9832824    4.2787139    19.416298    40.141335 
153524000    268.20716    315.22957    280.59601    -4.927583    3.7925679     34.63356     40.13063 
153528000    273.08359    330.62947    286.32663   -6.5143007    4.0598845    44.302833    40.139005 
153532000    248.92383    287.53325    268.92104   -4.2442497    5.7345666    18.612217    40.141431 
153536000    273.39379    332.30867     285.1856   -6.4967506    5.2087006    47.123068    40.134678 
153540000    266.04768    334.78781    268.94575   -6.0893539    7.0270857    65.842059    40.134552 
153544000    266.24591    321.02217    274.19976   -5.9685538    5.5594986     46.82241    40.128673 
153548000    259.97778    304.58327    283.18677   -4.9871026    5.2927969    21.396495     40.11105 
153552000    270.43865    341.09971     289.6978   -5.3687488    5.1263002    51.401908     40.10508 
153556000    261.37635    306.94882    266.52778   -5.8591304    5.9032694    40.421036    40.094089 
153560000    271.51556    329.98521    275.27737   -5.6447747    5.3047401    54.707839    40.090047 
153564000    273.02675    344.77927    276.76034   -6.1112745    5.7121538    68.018937    40.083379 
153568000    271.73113     336.8811    298.39798   -5.3502808    4.3649927    38.483121    40.078085 
153572000    264.38087    304.49393     274.3674   -5.1716532    4.7219767    30.126531    40.069873 
153576000    273.34078    339.02994    289.01474   -6.7636544    4.8887035      50.0152    40.069128 
153580000    258.85148    315.63912    282.72161   -4.7998096    5.6977377    32.917514    40.077075 
153584000    258.99466    313.02551    274.48494   -5.6306943    5.2530021    38.540571    40.067975 
153588000    269.14879    334.73747    280.93587   -5.8176782    4.6519895    53.801597    40.057558 
153592000    253.50188    299.20837    264.84375   -3.0995979    5.5449433    34.364624      40.0512 
153596000    264.23823    317.45905    276.38989   -4.6588169    5.0484609    41.069166    40.058157 
153600000    273.35635    320.63184    304.16872   -4.3942888    4.2410959    16.463118    40.053677 
153604000    268.40365     316.9899    301.36303   -4.2457823    4.3695107    15.626871    40.063367 
153608000    262.81064    315.30147    274.36751   -5.0748875    5.2822628    40.933966    40.067146 
153612000    262.51863    327.24436     271.1453   -4.9237534    6.1549936    56.099063    40.063051 
153616000    264.62946    328.28182     273.8779    -5.774375    5.6121114    54.403924    40.060059 
153620000    269.02764    328.56771     273.7209    -7.074743     6.400031     54.84681    40.063727 
153624000    272.20024    351.56341    275.63771   -8.5334734    5.3906792    75.925704    40.069676 
153628000    268.86604    320.43624    281.17218   -6.4672088    5.5742207    39.264063    40.080094 
153632000    268.41113    305.59338    270.33255    -5.856608    6.0484716     35.26083    40.087453 
153636000    272.36059    331.41247    279.61617   -7.5387945    5.7851228    51.796301    40.077858 
153640000      268.694    310.04254    272.15842   -7.0148002    5.1830274    37.884118    40.076909 
153644000    279.86585    327.07314    295.04676   -8.0155352    5.3786322    32.026386    40.089653 
153648000    267.24319     310.2133    289.79875    -6.521952    6.2563693     20.41455    40.101896 
153652000    264.46181    319.75848    296.76933   -6.7521796     5.766068     22.98915    40.094171 
153656000    268.68523    334.81485    253.43193    -7.863527    6.6935946    81.382927    40.096123 
153660000    267.94795    284.90928    311.11412   -5.8617832    4.2795464   -26.204838    40.090813 
153664000    271.23666    318.35023    285.04433   -7.3801106    5.2981753    33.305894    40.093196 
153668000    263.73263    311.77304     273.3509   -6.2464251    5.6759807    38.422131    40.101318 
153672000    279.36873    348.20087    299.33669   -8.5716684    5.4530245    48.864185    40.094465 
153676000    275.80522    308.03581    306.66047   -7.3772284    5.7352596    1.3753395    40.094147 
153680000    273.57598    324.34374    293.15927   -6.9608761    5.8148291    31.184472    40.096675 
153684000    274.84503    295.73543    298.76714   -6.7145274    6.7768948   -3.0317066    40.103441 
153688000    271.24811     294.3513    314.47557   -6.8754514    4.3580376   -20.124271    40.094155 
153692000     274.3655     328.5679    287.24724   -7.9069982    6.7432685    41.320664    40.093622 
153696000    276.16396    313.79928    291.05338   -7.9536051    6.4082733    22.745898     40.10409 
153700000    271.03322    326.99733    279.06999   -7.5091887    6.2780838    47.927337    40.097127 
153704000    275.02226     311.4636     295.7611   -7.6929324    5.0816137    15.702495    40.091458 
153708000    278.85274    355.73449    284.23006   -9.4647963    6.4550809    71.504434    40.088602 
153712000    278.25667     342.6207    290.27089   -9.0572787    5.4644841     52.34981    40.096851 
153716000    275.30029       324.66    291.74009   -7.6821252    5.6171345    32.919909    40.094614 
153720000     263.0739    314.31811    261.27362   -7.3443373    7.7994918    53.044483    40.089474 
153724000    270.91896    321.69332    279.97548   -7.9658369     6.833501    41.717842    40.093234 
153728000    270.31888    320.20213     284.7472   -6.1361402    6.0876018    35.454927    40.092747 
153732000     271.8351    322.98449    286.71229   -7.0363461    6.5583934    36.272201    40.094381 
153736000    267.75957    335.31463    268.24592   -7.6206412    6.7113845    67.068711    40.092731 
153740000     269.9665    327.82396    271.20925   -7.1265335    6.6276982    56.614715     40.09169 
153744000    280.03778    343.84428    285.48344   -7.8866233    5.1636101    58.360841    40.101327 
153748000    272.39666    324.46787    281.01938   -7.3065355    5.0499516    43.448489    40.103815 
153752000    274.20192    322.57849     306.9376   -7.2747948    4.3206804    15.640887    40.120082 
153756000    269.23673    312.01602    289.22283    -6.307875    5.3533053    22.793193    40.116094 
153760000    268.42164    303.35883    271.53016   -6.3884341    5.5485029    31.828672    40.115568 
153764000    267.66108    318.25833    269.58527   -6.2971357    5.9078598    48.673057    40.106107 
153768000    267.39338    323.78676    275.58406   -7.0152056    5.5687489    48.202696     40.10367 
153772000    268.03462    316.87057    295.73944   -7.1392839    5.0695568    21.131128     40.10279 
153776000       282.46    357.04588    303.57038    -7.651836    4.6310161    53.475503    40.107558 
153780000    279.37469    343.21927    296.37597   -7.4370076    6.1989119    46.843303    40.114078 
153784000     278.5755    347.32853    268.37543    -6.782545    6.0222106    78.953102    40.124288 
153788000     273.1473    326.85964    289.05616   -5.5375309    4.9790574    37.803476     40.12403 
153792000    264.25206    326.37731    263.34155   -6.7943095    5.9932028    63.035762    40.125213 
153796000    271.51289    339.95143    270.62935   -7.2730756    4.4253843    69.322075    40.143209 
153800000    284.40727    350.05485    290.53052   -8.4213909    4.6562266    59.524328    40.133328 
153804000    264.17053    297.49459    285.21038   -6.3483028    4.0760241    12.284211    40.136119 
153808000     272.4085    334.92489    289.97431   -7.0335489    4.0753825    44.950586    40.139577 
153812000    265.93851    308.85577    285.36252   -5.9885508    5.6767417    23.493244    40.143657 
153816000    267.62984    303.84345    288.07044   -6.6034755      5.87332    15.773006    40.152753 
153820000    277.78562    388.62031    262.23235   -9.6179209    6.0913526    126.38797    40.164978 
153824000    269.46249    317.18504    300.29554   -6.9883724    6.1754164      16.8895    40.159328 
153828000    261.96796    311.86972    262.10626   -6.4615774    7.4185649     49.76346    40.158199 
153832000    268.61204    305.24333     302.8604   -6.2196899    5.4809015    2.3829287    40.147629 
153836000    264.00064    327.50296    264.28518   -8.1340656    7.5880606    63.217774    40.155216 
153840000    249.90389    303.58497     248.5994   -5.9143189    7.7106482    54.985564    40.154037 
153844000    280.40818    334.73651    292.31124   -8.6746996    5.7868574    42.425268      40.1618 
153848000    269.80673    310.01148    284.74465   -7.7906302    7.0492751    25.266826    40.162519 
153852000    267.79099    316.45387    285.91168    -7.788469    5.8599005    30.542195    40.165871 
153856000    276.42769    324.53389    291.72883   -8.6470305    5.9812847    32.805057    40.158146 
153860000    267.80055    333.66982      274.861   -8.2024745     6.870828    58.808819    40.165046 
153864000    269.89392     317.1501    286.07726   -7.9099853    5.9535191    31.072833    40.158387 
153868000    278.11922    339.36398    293.76098    -8.373018    5.9057614    45.602999    40.159913 
153872000    264.58892    316.72001    276.32864   -6.8146043    6.4928998    40.391377    40.155615 
153876000    261.71288    301.57223    278.66312   -6.4246579    6.6068688    22.909114    40.159426 
153880000    271.39571    320.53975    294.99378   -6.0720086    6.4998187    25.545972    40.158487 
153884000    270.34177    337.68223    278.92174   -7.5980612    6.6348821    58.760499    40.163813 
153888000    278.33317    353.05315    288.51139   -8.4135514    6.4594824    64.541763    40.156043 
153892000    272.51717    329.46963    277.57189   -7.2452692    7.4538693    51.897737    40.164075 
153896000    260.92571     306.2636     280.3014   -6.3248261    6.6932583    25.962201    40.159837 
153900000    279.29255    342.22818    290.81095   -7.2058166     6.810783    51.417229    40.155435 
153904000    268.48153    326.77822    290.53637   -5.9251286    6.6194445    36.241848    40.154237 
153908000    256.59182    286.32047    297.70187   -5.6962589    5.6953046   -11.381399    40.155933 
153912000    262.49946    306.76223     284.3856   -6.4477589    6.1888146    22.376632    40.158947 
153916000     272.2842    307.89081    323.73163   -5.9964737    4.6076284   -15.840816       40.156 
153920000    267.85457    334.63234    286.04476   -6.4216792    6.0760854    48.587584      40.1546 
153924000    264.90787    322.20826    276.22129   -6.9047715     6.688945    45.986976    40.143615 
153928000    265.40509    298.32385    280.44226   -6.8436953    7.1745542    17.881588    40.142998 
153932000    268.52935    350.59138    268.50813   -9.5347776    8.3731204    82.083247    40.147877 
153936000    264.08171    313.95307    282.70827   -8.5486923    8.1046519      31.2448    40.150446 
153940000    260.37848    299.60728    273.84729   -7.0802512    8.0416295    25.759996    40.156525 
153944000    264.61017    323.77886    266.90988   -7.6325058    8.4546579    56.868979    40.165316 
153948000    267.66723    299.51089    293.92064   -5.4678008    7.6019013    5.5902473    40.157986 
153952000    268.92231     316.7662    276.10806   -6.7898085    7.9362216     40.65814    40.160927 
153956000    265.22395    310.35504    296.71094   -6.9477164    6.1756587    13.644105    40.156309 
153960000    269.12121     311.7817    285.26322   -7.0913329    6.3240187    26.518484      40.1607 
153964000    267.87435    322.33079    282.09774   -7.8717465    6.7454471    40.233046     40.16392 
153968000    270.12411    332.26776    302.43017   -7.0246349    6.2450786    29.837596    40.169673 
153972000    259.87239    317.74712     274.7577   -6.9683047    7.8523852    42.989416    40.171713 
153976000     265.3226    345.26678    292.50867   -8.3378878    7.2757347    52.758108    40.167918 
153980000    271.60234    345.00503    307.53814   -7.6106968    7.1120976    37.466893    40.163817 
153984000    272.09817    330.47257    288.09694   -7.8990076    7.3714822    42.375626    40.149208 
153988000    261.50308    312.70629    278.16099   -6.3800759    7.4956892    34.545307    40.146495 
153992000    271.71143    309.12514    308.98319   -6.2158471    6.6947798   0.14195585    40.153189 
153996000    269.44511    309.44233    287.99562   -6.9962647     7.642817    21.446712    40.146005 
154000000    263.07339    318.40622    262.95985   -7.5487187    7.4543802    55.446372    40.140994 
154004000    265.77962    323.10073    289.44911   -7.8212543    6.6796815    33.651622     40.14831 
154008000    262.05684    319.06227     287.0492   -8.1023366    6.9770372    32.013067    40.144044 
154012000    267.23168    322.82202    272.19691    -6.614765    7.9337038     50.62511    40.143093 
154016000    256.39652    304.06715    287.76521    -5.049439    7.6168909     16.30194    40.138965 
154020000    254.23607    321.45175    269.37474   -6.1066441    7.7858111    52.077008    40.130894 
154024000      257.796    300.65458    265.33897   -6.8147309    6.9486561    35.315613    40.133405 
154028000    268.64248    319.02621    310.02024   -6.8417366    5.5352477    9.0059713    40.134223 
154032000    258.25219    316.80632    277.52778   -5.2396061    7.2060177    39.278539    40.134779 
154036000    258.65957    301.73269    271.85138   -4.6058071    7.7300897    29.881312    40.138253 
154040000    251.26989    290.32717     271.9656   -4.1785763    7.8090859    18.361563    40.134405 
154044000    269.01713    346.55912    279.37726   -5.2939563    7.5643139    67.181854    40.142498 
154048000      261.641     324.7054    268.27286    -5.903968      7.57599    56.432538    40.152721 
154052000    263.67665    336.34482    266.56819   -5.5045882    7.0620159    69.776629    40.155026 
154056000    254.84921    327.08361    267.79226   -5.1943334    7.3861977    59.291349    40.145151 
154060000    252.33434    315.31422    274.65812   -5.7566768    7.4934042    40.656103    40.152362 
154064000    252.18322    306.53508    256.98077   -5.2489972    8.3642264    49.554311    40.162812 
154068000    263.35096      316.589    289.21145   -5.7608894    6.3488028    27.377543    40.151356 
154072000    266.99766    336.31461    274.00073   -6.9104915    5.9848742    62.313878    40.153641 
154076000    271.62908    325.80982    277.01791   -5.8766468    5.6357026    48.791904    40.157998 
154080000    266.76633     325.4184    277.67471   -5.4303332    6.7528966    47.743691    40.156424 
154084000    264.68165    336.51144    274.50238   -6.8545501    7.4907939    62.009054    40.161085 
154088000    256.34571    308.25525    281.49796   -5.3177238    7.1053528    26.757283    40.160434 
154092000    270.11252    345.86602    275.20468   -6.8029343    7.3625114    70.661337    40.154169 
154096000    252.90609    308.24663    241.11953   -4.5708167    7.2632859    67.127098     40.16457 
154100000    255.30842    281.84964    274.89558    -4.625487    6.0450477     6.954055    40.167367 
154104000    270.68961     325.9124    291.80533   -5.8544006    6.4311181    34.107073    40.171594 
154108000     260.6027    321.85825    284.13576   -6.1753905    5.5802111    37.722489    40.176254 
154112000    269.86149    322.57651    280.27248   -6.9738401    5.7790204    42.304027     40.18466 
154116000    269.23619    340.17272    288.26205   -8.2061924    5.7879943    51.910673    40.193027 
154120000    273.50959    339.81113    283.81606   -7.1523698    5.7926906    55.995064     40.19945 
154124000     269.6216    338.41801    277.10181   -7.2908691    6.0935895    61.316204    40.204137 
154128000    283.91506    339.87919    294.47092   -6.6343288    5.1552075    45.408264    40.199497 
154132000    262.61492    323.97248    257.31126     -5.87295    6.5970498    66.661218     40.20402 
154136000    276.64616     347.2731    280.19298   -7.4132969    6.5424689    67.080119    40.204963 
154140000    265.03007     322.4742    262.48678    -8.005231    7.9415424    59.987422    40.206671 
154144000      273.711    328.12665    281.02948   -6.7202091    6.6232108    47.097165    40.198751 
154148000    258.46061    306.19065    273.47177   -6.4001612    6.2631458    32.718878    40.207461 
154152000    268.29265    329.94863    275.20405   -8.3733781    5.9172492    54.744578    40.205358 
154156000    264.21809    307.71458     278.4967   -7.0201149    6.4273116    29.217877    40.205314 
154160000    280.45174    353.66638    308.74557   -10.616173    5.4678416    44.920816    40.205991 
154164000    265.60129    317.97652    279.49171   -8.3012303    5.9423581    38.484812    40.206158 
[...]
167312000    267.14381    346.14971    261.48006   -34.482754    35.620302    84.669645    40.081357 
167316000    261.57755    294.17224    297.65905   -32.344512    33.282896   -3.4868079    40.080681 
167320000     266.9442    320.56362    292.14555    -33.82457     33.03843    28.418075    40.079713 
167324000    258.69984    313.35687    266.21346   -33.717733    34.474007    47.143405    40.079675 
167328000    266.92956    343.12612    286.38356   -34.452906    34.298825    56.742559    40.079208 
167332000    267.58054    319.56563    290.23209   -33.404406    33.864115    29.333533    40.079698 
167336000    268.93184    349.61564    257.20736   -35.549493    35.180925    92.408279    40.080086 
167340000    265.50333    315.49458    295.29432   -34.282619    34.521329    20.200262    40.079683 
167344000    269.61838    323.05591    300.56532   -34.675144    34.586307     22.49059    40.079107 
167348000    264.03074     316.6539    276.86781   -34.649247    33.288478     39.78609    40.078881 
167352000    268.22439    360.74324    270.71129   -36.426674     33.46264    90.031948    40.078738 
167356000    265.10497    318.01784    278.71882   -34.491565    34.093677    39.299023    40.078639 
167360000    264.59226    324.62641    271.19258   -35.268983    34.587403    53.433825    40.078402 
167364000    265.22385    307.96366    293.93598   -34.847189    33.113901    14.027677    40.078227 
167368000    263.10591    313.03201    272.30246    -34.71563    34.582314    40.729548    40.077677 
167372000     263.9398    311.11993    280.94645   -34.392109    35.380403    30.173484    40.078982 
167376000    274.11767    343.64942    279.35681   -36.045911    34.127985    64.292615    40.078118 
167380000    262.58959    317.39999     265.7846   -34.991081    34.644816    51.615389    40.077711 
167384000    271.15781    325.69577    259.68392   -35.128224    34.058011    66.011848    40.078788 
167388000     263.8077    318.60715    267.55713   -35.681181    33.248429    51.050018     40.07881 
167392000    261.74805    306.53032    273.89879   -34.117297    33.455992    32.631536    40.080389 
167396000     276.1423    325.87101    289.94174   -34.992954    33.026467    35.929267    40.078613 
167400000    279.97073    339.09685     284.1858   -35.664567    33.109671     54.91105    40.078933 
167404000    271.31629    309.97137    292.38198   -34.791188    32.068292    17.589388    40.078732 
167408000    271.67442    335.72899    273.81622   -35.993077    33.784666    61.912764    40.078458 
167412000    273.74091    330.42045    298.57277   -36.213349    32.709491    31.847679    40.078042 
167416000    265.29915    313.67717    273.13608   -35.988996    33.909243    40.541088    40.078628 
167420000    266.37539     309.7728     281.2947   -35.281696    33.138611    28.478101    40.079435 
167424000    274.15809    341.76946    276.57972   -37.077745    34.038435    65.189738    40.078871 
167428000    275.63566    362.14998    274.07458   -36.342117    34.887792    88.075401    40.078372 
167432000    279.97919    324.08292    281.58002    -36.12036    35.252942      42.5029    40.077716 
167436000    267.63677    337.53331    273.77466   -36.417052    35.238031     63.75865    40.078381 
167440000    271.13124    326.85664    265.72669   -35.788819    33.987578    61.129948    40.078176 
167444000    275.07422    328.02452    285.32826   -37.327654    33.932344    42.696264    40.076809 
167448000     269.8874    315.71178    275.74476   -35.551768     35.29924    39.967021    40.076044 
167452000    263.96014    297.53503    270.27549   -35.469232     34.41975    27.259544     40.07582 
167456000    266.19478     291.2905    281.24492   -33.597205     35.11033    10.045587     40.07484 
167460000    277.29438    343.37924    287.89189   -35.763273    34.642103    55.487348    40.074487 
167464000    269.61412    326.46657     269.0574   -35.590085    34.741884    57.409162    40.074545 
167468000    267.18022    299.14846    276.66233   -33.763074    34.976278    22.486125    40.073429 
167472000    261.55795    308.23581    282.31817   -34.443821    34.119785    25.917642    40.073496 
167476000    274.67172    343.47488    288.38867   -36.034272    34.571641    55.086214    40.073538 
167480000     277.1776    322.76511    286.18074   -36.432455    34.669185    36.584378    40.073563 
167484000    273.95756    303.04126    293.37896   -34.896528    34.157822    9.6622977    40.072739 
167488000    266.79423     308.5756    306.77984   -35.496642    33.247958    1.7957645    40.073232 
167492000    269.53001    320.51617     276.2591   -36.838663    32.796775    44.257072    40.073801 
167496000    284.57897    317.38255     303.0262   -38.035759    33.229443    14.356349    40.071899 
167500000    272.45447    317.92013    274.26396   -36.845118    35.215274    43.656162    40.071508 
167504000    283.28885    329.15741    304.50645   -37.176606    33.255348    24.650962    40.072311 
167508000    265.10826    309.46012    272.07973   -35.225857    34.700045    37.380382    40.072103 
167512000    273.24481    306.11671    297.00759   -35.358695    33.625927    9.1091177    40.071493 
167516000    276.39457    312.64086    301.00467   -35.478504    34.045263    11.636191    40.070461 
167520000    290.43452    349.57312    310.02697    -36.97865    32.506464    39.546152     40.06971 
167524000     274.0877    326.52825    268.18298   -35.571317    35.107758    58.345266    40.069435 
167528000    283.74801    324.78342     312.1592   -35.294739     32.21349    12.624217    40.069392 
167532000    276.06238    346.29093    286.70495   -36.269755    34.486848    59.585984    40.069289 
167536000    267.47063    311.58644    282.00326   -34.749365    34.369282     29.58318    40.069778 
167540000    264.83824    294.73153     279.3717   -34.975728      33.5301    15.359826    40.070185 
167544000    269.24414    325.86863    269.76189   -34.892204    33.426498    56.106737    40.069597 
167548000    266.91352    313.59872    283.72879   -36.075268    32.755682    29.869932    40.068213 
167552000    273.92748    327.73773    269.05582   -35.915845     34.93365     58.68191    40.067911 
167556000    279.62913    307.21176    314.43161   -36.133642    32.570685   -7.2198511    40.067021 
167560000    275.59803    325.67662     285.7019   -35.848299    33.462846    39.974726     40.06722 
167564000    279.01718    320.47909    293.42109   -35.677503     33.34416    27.057994    40.067113 
167568000    261.08466    298.25836    289.70331   -34.400042    33.337842      8.55505    40.066592 
167572000    275.33023    334.26614    284.12391   -36.394131    33.243404     50.14223     40.06652 
167576000     266.7215    323.89273    259.15618   -35.237595    34.488015    64.736546    40.066809 
167580000    273.61454    329.85069    273.71697    -35.18626    34.001786    56.133718    40.067716 
167584000    264.99175     338.4988    252.99666   -35.945408    34.152093    85.502143     40.06776 
167588000    269.81979    309.28479    282.90939   -34.001118    33.367735    26.375395    40.067527 
167592000    275.27967    331.58931    290.62567    -34.13145    33.077125    40.963643    40.067067 
167596000     270.9553    323.60614    280.76837   -35.369143    34.408775    42.837763    40.067082 
167600000    270.56684    319.81376     290.2373   -35.061702    32.122917    29.576466    40.066276 
167604000    273.59014    324.28255     267.9752   -34.825698     33.26957    56.307349    40.065703 
167608000    257.52483    305.62807     253.7527   -33.134552    34.398228    51.875369    40.065158 
167612000    266.85674    329.51398    286.99524   -35.241334    33.396462    42.518732    40.064715 
167616000    261.65866    313.45385    248.09098   -34.664316    34.381807    65.362866    40.064574 
167620000    276.00346    327.70219    287.36383   -35.093064    32.735764    40.338361    40.064409 
167624000    274.49061    324.69095    277.38686   -35.193538    33.008295    47.304088    40.063999 
167628000    272.84359    312.43735    284.16939   -34.070951    34.483422    28.267957    40.063894 
167632000    277.61464    330.64157     296.5003   -34.586112    32.783434    34.141271    40.063548 
167636000    276.15514    329.68972    290.56629    -35.69591    33.242944    39.123433    40.063625 
167640000    271.48705    317.23153    279.37689   -34.693814    33.575517     37.85464    40.062681 
167644000    271.72373    322.98991    288.04846   -34.292137    32.724198    34.941449    40.063003 
167648000    275.32409    318.94969     297.3867   -35.500896    33.617541    21.562984    40.061621 
167652000    267.61802    309.18648    268.33778   -35.024779    35.078681    40.848702    40.060571 
167656000     280.8852    347.63687    286.69918   -36.070906     33.96237    60.937686    40.060329 
167660000    269.16822    308.08033    286.83295   -34.343987    34.423329    21.247373    40.061769 
167664000    264.11682    305.68335    270.81332    -34.15985    35.126467    34.870022    40.061191 
167668000    266.46346    305.59362     282.1938   -35.813818    34.160365    23.399824    40.062368 
167672000    252.29331    293.85936    279.46554     -33.6339    35.073489    14.393824    40.061748 
167676000     261.3777    288.86469    286.72517   -32.121711    34.677363     2.139524    40.060719 
167680000    262.05526    319.90302    268.38957   -33.676858    35.052008     51.51345    40.060507 
167684000    266.03736    318.64871    279.73467   -33.886106    34.796941    38.914049    40.059738 
167688000    271.25317    319.70589    297.56655   -35.069089    34.301038    22.139342    40.061235 
167692000    264.87291     327.3473    271.54055   -34.836485     34.53129    55.806758     40.06172 
167696000    264.81198    328.78012    279.02439   -34.412227    34.038256    49.755728    40.061258 
167700000    272.67824    334.41941    277.21207   -34.505609    34.194082    57.207336    40.060217 
167704000    274.82592    318.64295    302.91292   -33.730429    32.280372    15.730029    40.060476 
167708000    268.16969    306.57771    286.46118   -33.456258    33.686218    20.116529    40.060024 
167712000     261.9682     311.4089    279.25473   -33.545344    33.705375    32.154171    40.059869 
167716000     280.2394    337.15609    299.53615   -35.159221    32.352957     37.61994    40.058161 
167720000    261.93426    296.76042    268.77998   -32.467716    33.850784    27.980439    40.058227 
167724000    272.99424    318.97982    294.39145   -34.339901    33.299119    24.588369      40.0581 
167728000    274.26947     329.7959    284.82202   -35.616593    33.967882    44.973887    40.058834 
167732000    280.20576    356.78705    267.99278   -35.470504    34.434211    88.794269    40.058806 
167736000    273.87256    312.66001    289.96385   -34.283813    33.908202    22.696161    40.058882 
167740000    278.91297    339.93715    283.12103   -36.135812    34.155507     56.81612    40.060034 
167744000    273.24784    319.63555    276.63237   -36.067975    33.734327    43.003171    40.061166 
167748000     273.0453    301.39845     297.4248   -35.116282    33.357364    3.9736513    40.061247 
167752000    274.40355    334.87491    276.62427   -37.124262    33.861164     58.25064    40.062182 
167756000    273.87115    331.36752    293.28891   -36.477103    32.241519    38.078607    40.062282 
167760000    271.90211    310.12648    278.07118   -35.399022    32.823194    32.055302    40.063166 
167764000    263.08513    293.61811    259.53761   -34.868108    34.396237      34.0805    40.063166 
167768000    267.55576    332.91725    265.17577   -34.677425    34.236268    67.741486    40.061584 
167772000    271.39222    316.31582    289.19328   -34.599124    33.264963    27.122542    40.061828 
167776000     272.5332    333.87242     266.3811    -34.56582    33.827533    67.491318     40.06162 
167780000    277.47562    323.87206    302.41797   -34.620251    32.926464    21.454082    40.061238 
167784000     270.8435    318.31208     281.9584   -35.518883    33.225098    36.353679    40.062028 
167788000    275.60308    321.08143    281.01762   -35.822453    33.696607    40.063807    40.063206 
167792000    263.31689    314.56805    251.86971   -34.904725    34.747722    62.698338    40.062225 
167796000     269.1229    327.13607    273.01366   -34.459564    34.408927    54.122412      40.0608 
167800000    275.30456    343.91647    286.22803   -34.975518    32.827719    57.688434    40.061425 
167804000    274.23815    335.34682    285.19851   -34.465592    33.307143    50.148305    40.061053 
167808000    279.95739    327.70802     302.1764   -35.983847    31.887125    25.531617    40.061241 
167812000    273.54212    313.11366    305.91657   -33.634464     32.37014    7.1970902    40.061267 
167816000    273.72365    310.65083     281.8258   -34.198139    33.222824    28.825026    40.063856 
167820000    280.15765    347.45986    286.25407   -35.382241    32.443129     61.20579    40.064488 
167824000    269.18024    327.60206    275.58489   -34.612144    34.133579    52.017173    40.062846 
167828000    274.04403    305.47964    286.87584   -34.109106    33.454613    18.603801    40.061976 
167832000    274.70573    291.86076     299.5434   -33.832467    32.885476   -7.6826435    40.061122 
167836000    270.71078     308.2024    290.85808   -34.076609    33.308593    17.344329    40.061816 
167840000    271.28052    307.66382    283.10123   -34.277073    32.754673    24.562583     40.06237 
167844000    284.69245     314.8461    305.94807   -35.465879    32.228055    8.8980268    40.061658 
167848000    267.10212    313.42069    274.05735   -36.727731    33.965434    39.363332    40.061685 
167852000    279.34315    325.48001    293.29521   -36.613028    33.752426    32.184809    40.060249 
167856000    284.62015     335.7189    297.07565    -37.32554    33.502445    38.643252    40.060076 
167860000    277.95534    325.66737    282.83456   -36.641269    33.010083    42.832815    40.060966 
167864000    272.87636    297.05252    278.54991   -36.169978    33.319107    18.502612    40.061085 
167868000    285.50715    336.25533    273.85644   -36.913098    33.142587    62.398887    40.061289 
167872000    269.41834    316.25691    270.60988   -36.191441    34.082386    45.647039    40.061816 
167876000    271.50442    334.83845    285.04608   -36.329662     33.33139    49.792365     40.06128 
167880000     281.6452    346.44622    288.33244   -36.902382    33.162847    58.113775    40.060328 
167884000    272.45513    323.51251    278.46169   -35.724429    34.144165    45.050824    40.060752 
167888000    273.17917    329.60056    265.92507   -36.969524    34.266256    63.675487    40.060442 
167892000    267.61934    311.40725    268.03922   -35.188421    33.676259    43.368024     40.06087 
167896000    267.87598    331.82378    265.29912    -36.33116    33.601833    66.524653    40.062303 
167900000    265.67037    303.12128    271.23316   -34.716944    33.977572    31.888128    40.062805 
167904000    266.81556    318.76899    272.12371   -36.231374    34.390524    46.645285    40.062697 
167908000    269.03097    311.61423    265.00524   -35.440118    34.564571    46.608989    40.064172 
167912000    275.37557    325.84483    280.96467   -35.518782    33.505472    44.880153    40.062831 
167916000    274.07801    326.52816    289.07348   -36.615192    32.869452    37.454677    40.062516 
167920000    261.69077     318.6781    258.14215   -35.434438    33.446359    60.535947    40.062101 
167924000    267.74421    304.32284    291.74226   -34.292209    31.636321    12.580579    40.062283 
167928000    276.56386    320.36891    277.17591   -33.783337    32.654572    43.192998    40.064046 
167932000     269.5752    322.47705    279.99392   -33.795705    31.825463    42.483126    40.064328 
167936000    273.93083    319.04699    282.60268   -33.964098    31.518796    36.444307    40.063047 
167940000    273.46331    324.83422    288.58911   -33.888633    32.791009    36.245108     40.06199 
167944000    267.59367    318.08224    266.94428   -34.240341    32.562292    51.137959    40.062473 
167948000    276.21288    336.24059    285.71115   -34.843491    34.179254    50.529441    40.062895 
167952000    270.50644    336.35945    283.88289    -34.45232    33.190024    52.476564    40.063182 
167956000    276.94858    329.76898    290.80923   -32.736088    32.344955    38.959755    40.063192 
167960000    267.01901    341.64752    260.54142   -32.556311    33.198688    81.106101    40.064487 
167964000    264.36184    324.61705    286.22123   -33.199596    33.052107    38.395821    40.064856 
167968000    280.97749    326.76269     306.5876   -33.924738    32.284314    20.175088    40.065623 
167972000    269.78983    324.31081     292.4922   -33.922157    32.037104    31.818613    40.065601 
167976000    273.58402    329.65352    297.09096   -32.248582    31.750105    32.562554    40.066281 
167980000    273.63674    322.79767    283.04785   -32.281907    31.807551     39.74982    40.066492 
167984000    259.92386    313.74349    272.49241   -31.906101    32.928674    41.251085     40.06604 
167988000    265.55177    318.09269    280.92769   -31.905704     32.64127       37.165    40.065523 
167992000    272.20433    329.71755    287.96479    -33.94639    32.088695    41.752763    40.064777 
167996000    266.44315    321.13616    281.20651   -33.364635    32.656011    39.929656    40.065232 
168000000    269.62758    321.16309     288.7596   -33.230698    31.973208    32.403492    40.065936 
168001000    272.87033    339.85372    280.81492    -34.07895    31.952764    59.038801    40.065936 
Loop time of 9960.99 on 24 procs for 16000000 steps with 1198 atoms

Performance: 34.695 ns/day, 0.692 hours/ns, 1606.267 timesteps/s
89.4% CPU use with 24 MPI tasks x 1 OpenMP threads

MPI task timing breakdown:
Section |  min time  |  avg time  |  max time  |%varavg| %total
---------------------------------------------------------------
Pair    | 1952.1     | 5092.2     | 7518.1     |2189.1 | 51.12
Bond    | 7.615      | 25.715     | 46.498     | 196.9 |  0.26
Neigh   | 44.374     | 45.177     | 47.283     |  14.1 |  0.45
Comm    | 696.24     | 2186.7     | 3895.6     |2147.9 | 21.95
Output  | 4.9008     | 4.9674     | 4.9728     |   0.6 |  0.05
Modify  | 891.14     | 2302.9     | 3981.9     |2399.5 | 23.12
Other   |            | 303.3      |            |       |  3.05

Nlocal:    49.9167 ave 176 max 0 min
Histogram: 16 0 0 0 0 4 0 0 0 4
Nghost:    1339.29 ave 3013 max 199 min
Histogram: 12 0 0 0 4 0 0 0 0 8
Neighs:    2168.08 ave 11811 max 0 min
Histogram: 19 1 0 0 0 0 0 0 0 4

Total # of neighbors = 52034
Ave neighs/atom = 43.4341
Ave special neighs/atom = 0.647746
Neighbor list builds = 28549
Dangerous builds = 0

write_restart FINALCONFIG
WARNING: Using a manybody potential with bonds/angles/dihedrals and special_bond exclusions (../pair.cpp:218)
Neighbor list info ...
  update every 1 steps, delay 0 steps, check yes
  max neighbors/atom: 2000, page size: 100000
  master list distance cutoff = 16
  ghost atom cutoff = 16
  binsize = 8, bins = 3 3 22
  4 neighbor lists, perpetual/occasional/extra = 4 0 0
  (1) pair lj/cut, perpetual, skip from (4)
      attributes: half, newton on
      pair build: skip
      stencil: none
      bin: none
  (2) pair morse, perpetual, skip from (4)
      attributes: half, newton on
      pair build: skip
      stencil: none
      bin: none
  (3) pair eam, perpetual, skip from (4)
      attributes: half, newton on
      pair build: skip
      stencil: none
      bin: none
  (4) neighbor class addition, perpetual
      attributes: half, newton on
      pair build: half/bin/newton
      stencil: half/bin/3d/newton
      bin: standard

#and everyone lived happily ever after, THE END
Total wall time: 2:53:52
