LAMMPS UA chain data file
 
        2402  atoms
         241  bonds
          96  angles
          95  dihedrals
           0  impropers
 
           4  atom types
           3  bond types
           2  angle types
           1  dihedral types
           0  improper types
 
    0.000000      20.000000 xlo xhi
    0.000000      20.000000 ylo yhi
    -29.8000      116.50000 zlo zhi
 
Masses
 
  1   14.00
  2   32.06
  3   58.71
  4   58.71
 
Atoms
 
         1       1       2    9.6800    9.6800    0.0000   0   0   0
         2       1       1    9.0950    9.5219    1.0224   0   0   0
         3       1       1    9.8499    8.6726    1.7455   0   0   0
         4       1       1    9.2073    8.4828    2.7374   0   0   0
         5       1       1    9.9970    7.7266    3.5055   0   0   0
         6       1       1    9.3446    7.9294    4.4522   0   0   0
         7       1       1    9.8106    7.1368    5.3396   0   0   0
         8       1       1    9.0543    7.5144    6.2109   0   0   0
         9       1       1    9.6536    6.8368    7.0832   0   0   0
        10       1       1    9.3081    7.5595    7.9923   0   0   0
        11       1       1    9.7704    6.6472    8.7763   0   0   0
        12       1       1    9.3076    7.2279    9.7635   0   0   0
        13       1       1    9.4970    6.4323   10.6915   0   0   0
        14       1       1    9.0263    7.3683   11.4761   0   0   0
        15       1       1    8.8488    6.5930   12.3912   0   0   0
        16       1       1    9.0353    7.4649   13.2306   0   0   0
        17       1       1    9.0904    6.6197   14.1282   0   0   0
        18       1       1    9.3409    7.5703   14.9921   0   0   0
        19       1       1    9.0925    6.7488   15.9057   0   0   0
        20       1       1    8.9873    7.6277   16.7879   0   0   0
        21       1       1    9.1312    6.8366   17.6951   0   0   0
        22       1       1    9.2716    7.7528   18.5629   0   0   0
        23       1       1    9.4463    7.0604   19.4757   0   0   0
        24       1       1    9.2486    7.8996   20.3625   0   0   0
        25       1       1    9.4741    7.1775   21.2869   0   0   0
        26       1       1    9.2094    8.1994   22.0788   0   0   0
        27       1       1    9.5937    7.5501   23.0206   0   0   0
        28       1       1    9.3804    8.4140   23.9037   0   0   0
        29       1       1   10.1885    8.1061   24.7369   0   0   0
        30       1       1    9.5612    8.6940   25.6283   0   0   0
        31       1       1   10.0647    7.9597   26.5443   0   0   0
        32       1       1    9.5445    8.6516   27.4676   0   0   0
        33       1       1    9.9046    7.9857   28.3643   0   0   0
        34       1       1    9.5802    8.9695   29.1732   0   0   0
        35       1       1   10.0112    8.3191   30.0814   0   0   0
        36       1       1    9.6766    9.2466   30.9489   0   0   0
        37       1       1    9.9352    8.5491   31.8870   0   0   0
        38       1       1    9.6743    9.4552   32.7395   0   0   0
        39       1       1   10.0787    8.7488   33.6928   0   0   0
        40       1       1    9.9620    9.6295   34.5227   0   0   0
        41       1       1   10.3652    8.9711   35.4598   0   0   0
        42       1       1   10.3598    9.9206   36.2858   0   0   0
        43       1       1   10.4206    9.2718   37.2592   0   0   0
        44       1       1   10.4145   10.3172   38.0643   0   0   0
        45       1       1   10.3829    9.8183   39.0761   0   0   0
        46       1       1   10.5570   10.8778   39.8378   0   0   0
        47       1       1   10.4998   10.2016   40.7655   0   0   0
        48       1       1   10.4019   11.0629   41.6791   0   0   0
        49       1       1   10.4114   10.2811   42.6285   0   0   0
        50       1       1   10.4356   11.1563   43.5294   0   0   0
        51       1       1   10.6578   10.4768   44.4788   0   0   0
        52       1       1   10.0091   11.3307   45.2485   0   0   0
        53       1       1   10.2738   10.7414   46.2180   0   0   0
        54       1       1   10.0109   11.6527   47.0413   0   0   0
        55       1       1   10.1923   10.9711   48.0063   0   0   0
        56       1       1    9.8599   11.9168   48.7669   0   0   0
        57       1       1   10.0626   11.2057   49.6986   0   0   0
        58       1       1   10.2162   12.1002   50.5701   0   0   0
        59       1       1   10.1320   11.3850   51.5519   0   0   0
        60       1       1   10.2274   12.2261   52.4647   0   0   0
        61       1       1   10.4069   11.5218   53.4055   0   0   0
        62       1       1   10.5310   12.3575   54.2856   0   0   0
        63       1       1   10.8560   11.4694   55.1836   0   0   0
        64       1       1   11.0762   12.4033   56.0458   0   0   0
        65       1       1   10.9171   11.6182   56.9960   0   0   0
        66       1       1   10.6374   12.4696   57.8489   0   0   0
        67       1       1   11.1848   11.8681   58.7461   0   0   0
        68       1       1   10.6589   12.6214   59.6378   0   0   0
        69       1       1   10.8945   11.7399   60.5058   0   0   0
        70       1       1   10.7879   12.4320   61.4766   0   0   0
        71       1       1   11.2881   11.6273   62.3155   0   0   0
        72       1       1   10.9843   12.4057   63.1841   0   0   0
        73       1       1   11.4929   11.8354   64.1525   0   0   0
        74       1       1   11.1459   12.6146   65.0256   0   0   0
        75       1       1   11.5271   11.9785   65.9535   0   0   0
        76       1       1   10.9400   12.7046   66.8384   0   0   0
        77       1       1   11.4442   12.0086   67.7051   0   0   0
        78       1       1   11.0734   12.6758   68.6697   0   0   0
        79       1       1   11.5882   11.8808   69.5495   0   0   0
        80       1       1   11.2019   12.6084   70.4844   0   0   0
        81       1       1   11.5969   11.7058   71.2901   0   0   0
        82       1       1   11.6247   12.4739   72.2771   0   0   0
        83       1       1   11.8371   11.5410   73.1409   0   0   0
        84       1       1   11.5741   12.2654   74.0929   0   0   0
        85       1       1   11.6204   11.3149   74.9595   0   0   0
        86       1       1   11.4817   12.0766   75.9045   0   0   0
        87       1       1   11.6395   11.0843   76.7438   0   0   0
        88       1       1   11.5514   11.7260   77.7259   0   0   0
        89       1       1   11.6250   10.6710   78.5169   0   0   0
        90       1       1   11.4574   11.3078   79.5074   0   0   0
        91       1       1   11.6533   10.3049   80.2865   0   0   0
        92       1       1   11.4558   10.9191   81.2588   0   0   0
        93       1       1   11.4043    9.9270   82.1016   0   0   0
        94       1       1   11.3318   10.6452   83.0508   0   0   0
        95       1       1   11.2377    9.7033   83.8873   0   0   0
        96       1       1   11.3528   10.3513   84.8631   0   0   0
        97       1       1   11.4063    9.2430   85.5995   0   0   0
        98       1       2   11.0760    9.7120   86.7006   0   0   0
        99       1       3    0.0000    0.0000  -27.2740   0   0   0
       100       1       3    1.7600    1.7600  -27.2740   0   0   0
       101       1       3    1.7600    0.0000  -25.5140   0   0   0
       102       1       3    0.0000    1.7600  -25.5140   0   0   0
       103       1       3    3.5200    0.0000  -27.2740   0   0   0
       104       1       3    5.2800    1.7600  -27.2740   0   0   0
       105       1       3    5.2800    0.0000  -25.5140   0   0   0
       106       1       3    3.5200    1.7600  -25.5140   0   0   0
       107       1       3    7.0400    0.0000  -27.2740   0   0   0
       108       1       3    8.8000    1.7600  -27.2740   0   0   0
       109       1       3    8.8000    0.0000  -25.5140   0   0   0
       110       1       3    7.0400    1.7600  -25.5140   0   0   0
       111       1       3   10.5600    0.0000  -27.2740   0   0   0
       112       1       3   12.3200    1.7600  -27.2740   0   0   0
       113       1       3   12.3200    0.0000  -25.5140   0   0   0
       114       1       3   10.5600    1.7600  -25.5140   0   0   0
       115       1       3   14.0800    0.0000  -27.2740   0   0   0
       116       1       3   15.8400    1.7600  -27.2740   0   0   0
       117       1       3   15.8400    0.0000  -25.5140   0   0   0
       118       1       3   14.0800    1.7600  -25.5140   0   0   0
       119       1       3   17.6000    0.0000  -27.2740   0   0   0
       120       1       3   19.3600    1.7600  -27.2740   0   0   0
       121       1       3   19.3600    0.0000  -25.5140   0   0   0
       122       1       3   17.6000    1.7600  -25.5140   0   0   0
       123       1       3    0.0000    3.5200  -27.2740   0   0   0
       124       1       3    1.7600    5.2800  -27.2740   0   0   0
       125       1       3    1.7600    3.5200  -25.5140   0   0   0
       126       1       3    0.0000    5.2800  -25.5140   0   0   0
       127       1       3    3.5200    3.5200  -27.2740   0   0   0
       128       1       3    5.2800    5.2800  -27.2740   0   0   0
       129       1       3    5.2800    3.5200  -25.5140   0   0   0
       130       1       3    3.5200    5.2800  -25.5140   0   0   0
       131       1       3    7.0400    3.5200  -27.2740   0   0   0
       132       1       3    8.8000    5.2800  -27.2740   0   0   0
       133       1       3    8.8000    3.5200  -25.5140   0   0   0
       134       1       3    7.0400    5.2800  -25.5140   0   0   0
       135       1       3   10.5600    3.5200  -27.2740   0   0   0
       136       1       3   12.3200    5.2800  -27.2740   0   0   0
       137       1       3   12.3200    3.5200  -25.5140   0   0   0
       138       1       3   10.5600    5.2800  -25.5140   0   0   0
       139       1       3   14.0800    3.5200  -27.2740   0   0   0
       140       1       3   15.8400    5.2800  -27.2740   0   0   0
       141       1       3   15.8400    3.5200  -25.5140   0   0   0
       142       1       3   14.0800    5.2800  -25.5140   0   0   0
       143       1       3   17.6000    3.5200  -27.2740   0   0   0
       144       1       3   19.3600    5.2800  -27.2740   0   0   0
       145       1       3   19.3600    3.5200  -25.5140   0   0   0
       146       1       3   17.6000    5.2800  -25.5140   0   0   0
       147       1       3    0.0000    7.0400  -27.2740   0   0   0
       148       1       3    1.7600    8.8000  -27.2740   0   0   0
       149       1       3    1.7600    7.0400  -25.5140   0   0   0
       150       1       3    0.0000    8.8000  -25.5140   0   0   0
       151       1       3    3.5200    7.0400  -27.2740   0   0   0
       152       1       3    5.2800    8.8000  -27.2740   0   0   0
       153       1       3    5.2800    7.0400  -25.5140   0   0   0
       154       1       3    3.5200    8.8000  -25.5140   0   0   0
       155       1       3    7.0400    7.0400  -27.2740   0   0   0
       156       1       3    8.8000    8.8000  -27.2740   0   0   0
       157       1       3    8.8000    7.0400  -25.5140   0   0   0
       158       1       3    7.0400    8.8000  -25.5140   0   0   0
       159       1       3   10.5600    7.0400  -27.2740   0   0   0
       160       1       3   12.3200    8.8000  -27.2740   0   0   0
       161       1       3   12.3200    7.0400  -25.5140   0   0   0
       162       1       3   10.5600    8.8000  -25.5140   0   0   0
       163       1       3   14.0800    7.0400  -27.2740   0   0   0
       164       1       3   15.8400    8.8000  -27.2740   0   0   0
       165       1       3   15.8400    7.0400  -25.5140   0   0   0
       166       1       3   14.0800    8.8000  -25.5140   0   0   0
       167       1       3   17.6000    7.0400  -27.2740   0   0   0
       168       1       3   19.3600    8.8000  -27.2740   0   0   0
       169       1       3   19.3600    7.0400  -25.5140   0   0   0
       170       1       3   17.6000    8.8000  -25.5140   0   0   0
       171       1       3    0.0000   10.5600  -27.2740   0   0   0
       172       1       3    1.7600   12.3200  -27.2740   0   0   0
       173       1       3    1.7600   10.5600  -25.5140   0   0   0
       174       1       3    0.0000   12.3200  -25.5140   0   0   0
       175       1       3    3.5200   10.5600  -27.2740   0   0   0
       176       1       3    5.2800   12.3200  -27.2740   0   0   0
       177       1       3    5.2800   10.5600  -25.5140   0   0   0
       178       1       3    3.5200   12.3200  -25.5140   0   0   0
       179       1       3    7.0400   10.5600  -27.2740   0   0   0
       180       1       3    8.8000   12.3200  -27.2740   0   0   0
       181       1       3    8.8000   10.5600  -25.5140   0   0   0
       182       1       3    7.0400   12.3200  -25.5140   0   0   0
       183       1       3   10.5600   10.5600  -27.2740   0   0   0
       184       1       3   12.3200   12.3200  -27.2740   0   0   0
       185       1       3   12.3200   10.5600  -25.5140   0   0   0
       186       1       3   10.5600   12.3200  -25.5140   0   0   0
       187       1       3   14.0800   10.5600  -27.2740   0   0   0
       188       1       3   15.8400   12.3200  -27.2740   0   0   0
       189       1       3   15.8400   10.5600  -25.5140   0   0   0
       190       1       3   14.0800   12.3200  -25.5140   0   0   0
       191       1       3   17.6000   10.5600  -27.2740   0   0   0
       192       1       3   19.3600   12.3200  -27.2740   0   0   0
       193       1       3   19.3600   10.5600  -25.5140   0   0   0
       194       1       3   17.6000   12.3200  -25.5140   0   0   0
       195       1       3    0.0000   14.0800  -27.2740   0   0   0
       196       1       3    1.7600   15.8400  -27.2740   0   0   0
       197       1       3    1.7600   14.0800  -25.5140   0   0   0
       198       1       3    0.0000   15.8400  -25.5140   0   0   0
       199       1       3    3.5200   14.0800  -27.2740   0   0   0
       200       1       3    5.2800   15.8400  -27.2740   0   0   0
       201       1       3    5.2800   14.0800  -25.5140   0   0   0
       202       1       3    3.5200   15.8400  -25.5140   0   0   0
       203       1       3    7.0400   14.0800  -27.2740   0   0   0
       204       1       3    8.8000   15.8400  -27.2740   0   0   0
       205       1       3    8.8000   14.0800  -25.5140   0   0   0
       206       1       3    7.0400   15.8400  -25.5140   0   0   0
       207       1       3   10.5600   14.0800  -27.2740   0   0   0
       208       1       3   12.3200   15.8400  -27.2740   0   0   0
       209       1       3   12.3200   14.0800  -25.5140   0   0   0
       210       1       3   10.5600   15.8400  -25.5140   0   0   0
       211       1       3   14.0800   14.0800  -27.2740   0   0   0
       212       1       3   15.8400   15.8400  -27.2740   0   0   0
       213       1       3   15.8400   14.0800  -25.5140   0   0   0
       214       1       3   14.0800   15.8400  -25.5140   0   0   0
       215       1       3   17.6000   14.0800  -27.2740   0   0   0
       216       1       3   19.3600   15.8400  -27.2740   0   0   0
       217       1       3   19.3600   14.0800  -25.5140   0   0   0
       218       1       3   17.6000   15.8400  -25.5140   0   0   0
       219       1       3    0.0000   17.6000  -27.2740   0   0   0
       220       1       3    1.7600   19.3600  -27.2740   0   0   0
       221       1       3    1.7600   17.6000  -25.5140   0   0   0
       222       1       3    0.0000   19.3600  -25.5140   0   0   0
       223       1       3    3.5200   17.6000  -27.2740   0   0   0
       224       1       3    5.2800   19.3600  -27.2740   0   0   0
       225       1       3    5.2800   17.6000  -25.5140   0   0   0
       226       1       3    3.5200   19.3600  -25.5140   0   0   0
       227       1       3    7.0400   17.6000  -27.2740   0   0   0
       228       1       3    8.8000   19.3600  -27.2740   0   0   0
       229       1       3    8.8000   17.6000  -25.5140   0   0   0
       230       1       3    7.0400   19.3600  -25.5140   0   0   0
       231       1       3   10.5600   17.6000  -27.2740   0   0   0
       232       1       3   12.3200   19.3600  -27.2740   0   0   0
       233       1       3   12.3200   17.6000  -25.5140   0   0   0
       234       1       3   10.5600   19.3600  -25.5140   0   0   0
       235       1       3   14.0800   17.6000  -27.2740   0   0   0
       236       1       3   15.8400   19.3600  -27.2740   0   0   0
       237       1       3   15.8400   17.6000  -25.5140   0   0   0
       238       1       3   14.0800   19.3600  -25.5140   0   0   0
       239       1       3   17.6000   17.6000  -27.2740   0   0   0
       240       1       3   19.3600   19.3600  -27.2740   0   0   0
       241       1       3   19.3600   17.6000  -25.5140   0   0   0
       242       1       3   17.6000   19.3600  -25.5140   0   0   0
       243       1       3    0.0000    0.0000  -23.7540   0   0   0
       244       1       3    1.7600    1.7600  -23.7540   0   0   0
       245       1       3    1.7600    0.0000  -21.9940   0   0   0
       246       1       3    0.0000    1.7600  -21.9940   0   0   0
       247       1       3    3.5200    0.0000  -23.7540   0   0   0
       248       1       3    5.2800    1.7600  -23.7540   0   0   0
       249       1       3    5.2800    0.0000  -21.9940   0   0   0
       250       1       3    3.5200    1.7600  -21.9940   0   0   0
       251       1       3    7.0400    0.0000  -23.7540   0   0   0
       252       1       3    8.8000    1.7600  -23.7540   0   0   0
       253       1       3    8.8000    0.0000  -21.9940   0   0   0
       254       1       3    7.0400    1.7600  -21.9940   0   0   0
       255       1       3   10.5600    0.0000  -23.7540   0   0   0
       256       1       3   12.3200    1.7600  -23.7540   0   0   0
       257       1       3   12.3200    0.0000  -21.9940   0   0   0
       258       1       3   10.5600    1.7600  -21.9940   0   0   0
       259       1       3   14.0800    0.0000  -23.7540   0   0   0
       260       1       3   15.8400    1.7600  -23.7540   0   0   0
       261       1       3   15.8400    0.0000  -21.9940   0   0   0
       262       1       3   14.0800    1.7600  -21.9940   0   0   0
       263       1       3   17.6000    0.0000  -23.7540   0   0   0
       264       1       3   19.3600    1.7600  -23.7540   0   0   0
       265       1       3   19.3600    0.0000  -21.9940   0   0   0
       266       1       3   17.6000    1.7600  -21.9940   0   0   0
       267       1       3    0.0000    3.5200  -23.7540   0   0   0
       268       1       3    1.7600    5.2800  -23.7540   0   0   0
       269       1       3    1.7600    3.5200  -21.9940   0   0   0
       270       1       3    0.0000    5.2800  -21.9940   0   0   0
       271       1       3    3.5200    3.5200  -23.7540   0   0   0
       272       1       3    5.2800    5.2800  -23.7540   0   0   0
       273       1       3    5.2800    3.5200  -21.9940   0   0   0
       274       1       3    3.5200    5.2800  -21.9940   0   0   0
       275       1       3    7.0400    3.5200  -23.7540   0   0   0
       276       1       3    8.8000    5.2800  -23.7540   0   0   0
       277       1       3    8.8000    3.5200  -21.9940   0   0   0
       278       1       3    7.0400    5.2800  -21.9940   0   0   0
       279       1       3   10.5600    3.5200  -23.7540   0   0   0
       280       1       3   12.3200    5.2800  -23.7540   0   0   0
       281       1       3   12.3200    3.5200  -21.9940   0   0   0
       282       1       3   10.5600    5.2800  -21.9940   0   0   0
       283       1       3   14.0800    3.5200  -23.7540   0   0   0
       284       1       3   15.8400    5.2800  -23.7540   0   0   0
       285       1       3   15.8400    3.5200  -21.9940   0   0   0
       286       1       3   14.0800    5.2800  -21.9940   0   0   0
       287       1       3   17.6000    3.5200  -23.7540   0   0   0
       288       1       3   19.3600    5.2800  -23.7540   0   0   0
       289       1       3   19.3600    3.5200  -21.9940   0   0   0
       290       1       3   17.6000    5.2800  -21.9940   0   0   0
       291       1       3    0.0000    7.0400  -23.7540   0   0   0
       292       1       3    1.7600    8.8000  -23.7540   0   0   0
       293       1       3    1.7600    7.0400  -21.9940   0   0   0
       294       1       3    0.0000    8.8000  -21.9940   0   0   0
       295       1       3    3.5200    7.0400  -23.7540   0   0   0
       296       1       3    5.2800    8.8000  -23.7540   0   0   0
       297       1       3    5.2800    7.0400  -21.9940   0   0   0
       298       1       3    3.5200    8.8000  -21.9940   0   0   0
       299       1       3    7.0400    7.0400  -23.7540   0   0   0
       300       1       3    8.8000    8.8000  -23.7540   0   0   0
       301       1       3    8.8000    7.0400  -21.9940   0   0   0
       302       1       3    7.0400    8.8000  -21.9940   0   0   0
       303       1       3   10.5600    7.0400  -23.7540   0   0   0
       304       1       3   12.3200    8.8000  -23.7540   0   0   0
       305       1       3   12.3200    7.0400  -21.9940   0   0   0
       306       1       3   10.5600    8.8000  -21.9940   0   0   0
       307       1       3   14.0800    7.0400  -23.7540   0   0   0
       308       1       3   15.8400    8.8000  -23.7540   0   0   0
       309       1       3   15.8400    7.0400  -21.9940   0   0   0
       310       1       3   14.0800    8.8000  -21.9940   0   0   0
       311       1       3   17.6000    7.0400  -23.7540   0   0   0
       312       1       3   19.3600    8.8000  -23.7540   0   0   0
       313       1       3   19.3600    7.0400  -21.9940   0   0   0
       314       1       3   17.6000    8.8000  -21.9940   0   0   0
       315       1       3    0.0000   10.5600  -23.7540   0   0   0
       316       1       3    1.7600   12.3200  -23.7540   0   0   0
       317       1       3    1.7600   10.5600  -21.9940   0   0   0
       318       1       3    0.0000   12.3200  -21.9940   0   0   0
       319       1       3    3.5200   10.5600  -23.7540   0   0   0
       320       1       3    5.2800   12.3200  -23.7540   0   0   0
       321       1       3    5.2800   10.5600  -21.9940   0   0   0
       322       1       3    3.5200   12.3200  -21.9940   0   0   0
       323       1       3    7.0400   10.5600  -23.7540   0   0   0
       324       1       3    8.8000   12.3200  -23.7540   0   0   0
       325       1       3    8.8000   10.5600  -21.9940   0   0   0
       326       1       3    7.0400   12.3200  -21.9940   0   0   0
       327       1       3   10.5600   10.5600  -23.7540   0   0   0
       328       1       3   12.3200   12.3200  -23.7540   0   0   0
       329       1       3   12.3200   10.5600  -21.9940   0   0   0
       330       1       3   10.5600   12.3200  -21.9940   0   0   0
       331       1       3   14.0800   10.5600  -23.7540   0   0   0
       332       1       3   15.8400   12.3200  -23.7540   0   0   0
       333       1       3   15.8400   10.5600  -21.9940   0   0   0
       334       1       3   14.0800   12.3200  -21.9940   0   0   0
       335       1       3   17.6000   10.5600  -23.7540   0   0   0
       336       1       3   19.3600   12.3200  -23.7540   0   0   0
       337       1       3   19.3600   10.5600  -21.9940   0   0   0
       338       1       3   17.6000   12.3200  -21.9940   0   0   0
       339       1       3    0.0000   14.0800  -23.7540   0   0   0
       340       1       3    1.7600   15.8400  -23.7540   0   0   0
       341       1       3    1.7600   14.0800  -21.9940   0   0   0
       342       1       3    0.0000   15.8400  -21.9940   0   0   0
       343       1       3    3.5200   14.0800  -23.7540   0   0   0
       344       1       3    5.2800   15.8400  -23.7540   0   0   0
       345       1       3    5.2800   14.0800  -21.9940   0   0   0
       346       1       3    3.5200   15.8400  -21.9940   0   0   0
       347       1       3    7.0400   14.0800  -23.7540   0   0   0
       348       1       3    8.8000   15.8400  -23.7540   0   0   0
       349       1       3    8.8000   14.0800  -21.9940   0   0   0
       350       1       3    7.0400   15.8400  -21.9940   0   0   0
       351       1       3   10.5600   14.0800  -23.7540   0   0   0
       352       1       3   12.3200   15.8400  -23.7540   0   0   0
       353       1       3   12.3200   14.0800  -21.9940   0   0   0
       354       1       3   10.5600   15.8400  -21.9940   0   0   0
       355       1       3   14.0800   14.0800  -23.7540   0   0   0
       356       1       3   15.8400   15.8400  -23.7540   0   0   0
       357       1       3   15.8400   14.0800  -21.9940   0   0   0
       358       1       3   14.0800   15.8400  -21.9940   0   0   0
       359       1       3   17.6000   14.0800  -23.7540   0   0   0
       360       1       3   19.3600   15.8400  -23.7540   0   0   0
       361       1       3   19.3600   14.0800  -21.9940   0   0   0
       362       1       3   17.6000   15.8400  -21.9940   0   0   0
       363       1       3    0.0000   17.6000  -23.7540   0   0   0
       364       1       3    1.7600   19.3600  -23.7540   0   0   0
       365       1       3    1.7600   17.6000  -21.9940   0   0   0
       366       1       3    0.0000   19.3600  -21.9940   0   0   0
       367       1       3    3.5200   17.6000  -23.7540   0   0   0
       368       1       3    5.2800   19.3600  -23.7540   0   0   0
       369       1       3    5.2800   17.6000  -21.9940   0   0   0
       370       1       3    3.5200   19.3600  -21.9940   0   0   0
       371       1       3    7.0400   17.6000  -23.7540   0   0   0
       372       1       3    8.8000   19.3600  -23.7540   0   0   0
       373       1       3    8.8000   17.6000  -21.9940   0   0   0
       374       1       3    7.0400   19.3600  -21.9940   0   0   0
       375       1       3   10.5600   17.6000  -23.7540   0   0   0
       376       1       3   12.3200   19.3600  -23.7540   0   0   0
       377       1       3   12.3200   17.6000  -21.9940   0   0   0
       378       1       3   10.5600   19.3600  -21.9940   0   0   0
       379       1       3   14.0800   17.6000  -23.7540   0   0   0
       380       1       3   15.8400   19.3600  -23.7540   0   0   0
       381       1       3   15.8400   17.6000  -21.9940   0   0   0
       382       1       3   14.0800   19.3600  -21.9940   0   0   0
       383       1       3   17.6000   17.6000  -23.7540   0   0   0
       384       1       3   19.3600   19.3600  -23.7540   0   0   0
       385       1       3   19.3600   17.6000  -21.9940   0   0   0
       386       1       3   17.6000   19.3600  -21.9940   0   0   0
       387       1       3    0.0000    0.0000  -20.2340   0   0   0
       388       1       3    1.7600    1.7600  -20.2340   0   0   0
       389       1       3    1.7600    0.0000  -18.4740   0   0   0
       390       1       3    0.0000    1.7600  -18.4740   0   0   0
       391       1       3    3.5200    0.0000  -20.2340   0   0   0
       392       1       3    5.2800    1.7600  -20.2340   0   0   0
       393       1       3    5.2800    0.0000  -18.4740   0   0   0
       394       1       3    3.5200    1.7600  -18.4740   0   0   0
       395       1       3    7.0400    0.0000  -20.2340   0   0   0
       396       1       3    8.8000    1.7600  -20.2340   0   0   0
       397       1       3    8.8000    0.0000  -18.4740   0   0   0
       398       1       3    7.0400    1.7600  -18.4740   0   0   0
       399       1       3   10.5600    0.0000  -20.2340   0   0   0
       400       1       3   12.3200    1.7600  -20.2340   0   0   0
       401       1       3   12.3200    0.0000  -18.4740   0   0   0
       402       1       3   10.5600    1.7600  -18.4740   0   0   0
       403       1       3   14.0800    0.0000  -20.2340   0   0   0
       404       1       3   15.8400    1.7600  -20.2340   0   0   0
       405       1       3   15.8400    0.0000  -18.4740   0   0   0
       406       1       3   14.0800    1.7600  -18.4740   0   0   0
       407       1       3   17.6000    0.0000  -20.2340   0   0   0
       408       1       3   19.3600    1.7600  -20.2340   0   0   0
       409       1       3   19.3600    0.0000  -18.4740   0   0   0
       410       1       3   17.6000    1.7600  -18.4740   0   0   0
       411       1       3    0.0000    3.5200  -20.2340   0   0   0
       412       1       3    1.7600    5.2800  -20.2340   0   0   0
       413       1       3    1.7600    3.5200  -18.4740   0   0   0
       414       1       3    0.0000    5.2800  -18.4740   0   0   0
       415       1       3    3.5200    3.5200  -20.2340   0   0   0
       416       1       3    5.2800    5.2800  -20.2340   0   0   0
       417       1       3    5.2800    3.5200  -18.4740   0   0   0
       418       1       3    3.5200    5.2800  -18.4740   0   0   0
       419       1       3    7.0400    3.5200  -20.2340   0   0   0
       420       1       3    8.8000    5.2800  -20.2340   0   0   0
       421       1       3    8.8000    3.5200  -18.4740   0   0   0
       422       1       3    7.0400    5.2800  -18.4740   0   0   0
       423       1       3   10.5600    3.5200  -20.2340   0   0   0
       424       1       3   12.3200    5.2800  -20.2340   0   0   0
       425       1       3   12.3200    3.5200  -18.4740   0   0   0
       426       1       3   10.5600    5.2800  -18.4740   0   0   0
       427       1       3   14.0800    3.5200  -20.2340   0   0   0
       428       1       3   15.8400    5.2800  -20.2340   0   0   0