LAMMPS UA chain data file
 
         196  atoms
         195  bonds
         194  angles
         193  dihedrals
           0  impropers
 
           2  atom types
           1  bond types
           1  angle types
           1  dihedral types
           0  improper types
 
    -200.000000      200.000000 xlo xhi
    -200.000000      200.000000 ylo yhi
    0.000000         248.0 zlo zhi
 
Masses
 
  1 14.0
  2 14.0
 
Atoms
 
         1       1       2    0.0000    0.0000    0.0000   0   0   0
         2       1       2   -0.5850   -0.1581    1.4606   0   0   0
         3       1       2    0.1699   -1.0074    2.4936   0   0   0
         4       1       2   -0.4727   -1.1972    3.9105   0   0   0
         5       1       2    0.3170   -1.9534    5.0078   0   0   0
         6       1       2   -0.3354   -1.7506    6.3603   0   0   0
         7       1       1    0.1306   -2.5432    7.6280   0   0   0
         8       1       1   -0.6257   -2.1656    8.8727   0   0   0
         9       1       1   -0.0264   -2.8432   10.1189   0   0   0
        10       1       1   -0.3719   -2.1205   11.4176   0   0   0
        11       1       1    0.0904   -3.0328   12.5376   0   0   0
        12       1       1   -0.3724   -2.4521   13.9478   0   0   0
        13       1       1   -0.1830   -3.2477   15.2736   0   0   0
        14       1       1   -0.6537   -2.3117   16.3944   0   0   0
        15       1       1   -0.8312   -3.0870   17.7017   0   0   0
        16       1       1   -0.6447   -2.2151   18.9009   0   0   0
        17       1       1   -0.5896   -3.0603   20.1831   0   0   0
        18       1       1   -0.3391   -2.1097   21.4173   0   0   0
        19       1       1   -0.5875   -2.9312   22.7224   0   0   0
        20       1       1   -0.6927   -2.0523   23.9827   0   0   0
        21       1       1   -0.5488   -2.8434   25.2787   0   0   0
        22       1       1   -0.4084   -1.9273   26.5184   0   0   0
        23       1       1   -0.2337   -2.6196   27.8225   0   0   0
        24       1       1   -0.4314   -1.7804   29.0893   0   0   0
        25       1       1   -0.2059   -2.5025   30.4099   0   0   0
        26       1       1   -0.4706   -1.4806   31.5411   0   0   0
        27       1       1   -0.0863   -2.1299   32.8866   0   0   0
        28       1       1   -0.2996   -1.2660   34.1482   0   0   0
        29       1       1    0.5085   -1.5739   35.3384   0   0   0
        30       1       1   -0.1188   -0.9860   36.6118   0   0   0
        31       1       1    0.3847   -1.7203   37.9204   0   0   0
        32       1       1   -0.1355   -1.0284   39.2394   0   0   0
        33       1       1    0.2246   -1.6943   40.5204   0   0   0
        34       1       1   -0.0998   -0.7105   41.6760   0   0   0
        35       1       1    0.3312   -1.3609   42.9735   0   0   0
        36       1       1   -0.0034   -0.4334   44.2127   0   0   0
        37       1       1    0.2552   -1.1309   45.5528   0   0   0
        38       1       1   -0.0057   -0.2248   46.7707   0   0   0
        39       1       1    0.3987   -0.9312   48.1326   0   0   0
        40       1       1    0.2820   -0.0505   49.3181   0   0   0
        41       1       1    0.6852   -0.7089   50.6569   0   0   0
        42       1       1    0.6798    0.2406   51.8369   0   0   0
        43       1       1    0.7406   -0.4082   53.2275   0   0   0
        44       1       1    0.7345    0.6372   54.3776   0   0   0
        45       1       1    0.7029    0.1383   55.8230   0   0   0
        46       1       1    0.8770    1.1978   56.9112   0   0   0
        47       1       1    0.8198    0.5216   58.2365   0   0   0
        48       1       1    0.7219    1.3829   59.5416   0   0   0
        49       1       1    0.7314    0.6011   60.8978   0   0   0
        50       1       1    0.7556    1.4763   62.1848   0   0   0
        51       1       1    0.9778    0.7968   63.5412   0   0   0
        52       1       1    0.3291    1.6507   64.6407   0   0   0
        53       1       1    0.5938    1.0614   66.0257   0   0   0
        54       1       1    0.3309    1.9727   67.2019   0   0   0
        55       1       1    0.5123    1.2911   68.5805   0   0   0
        56       1       1    0.1799    2.2367   69.6670   0   0   0
        57       1       1    0.3826    1.5257   70.9980   0   0   0
        58       1       1    0.5362    2.4202   72.2430   0   0   0
        59       1       1    0.4520    1.7050   73.6456   0   0   0
        60       1       1    0.5474    2.5461   74.9496   0   0   0
        61       1       1    0.7269    1.8418   76.2935   0   0   0
        62       1       1    0.8510    2.6775   77.5508   0   0   0
        63       1       1    1.1760    1.7894   78.8337   0   0   0
        64       1       1    1.3962    2.7233   80.0654   0   0   0
        65       1       1    1.2371    1.9382   81.4229   0   0   0
        66       1       1    0.9574    2.7896   82.6413   0   0   0
        67       1       1    1.5048    2.1881   83.9230   0   0   0
        68       1       1    0.9789    2.9414   85.1968   0   0   0
        69       1       1    1.2145    2.0599   86.4369   0   0   0
        70       1       1    1.1079    2.7520   87.8237   0   0   0
        71       1       1    1.6081    1.9473   89.0221   0   0   0
        72       1       1    1.3043    2.7257   90.2630   0   0   0
        73       1       1    1.8129    2.1554   91.6465   0   0   0
        74       1       1    1.4659    2.9346   92.8937   0   0   0
        75       1       1    1.8470    2.2985   94.2193   0   0   0
        76       1       1    1.2600    3.0246   95.4835   0   0   0
        77       1       1    1.7642    2.3286   96.7216   0   0   0
        78       1       1    1.3934    2.9958   98.0995   0   0   0
        79       1       1    1.9082    2.2008   99.3564   0   0   0
        80       1       1    1.5219    2.9284  100.6920   0   0   0
        81       1       1    1.9169    2.0258  101.8430   0   0   0
        82       1       1    1.9447    2.7938  103.2530   0   0   0
        83       1       1    2.1571    1.8610  104.4870   0   0   0
        84       1       1    1.8941    2.5854  105.8470   0   0   0
        85       1       1    1.9404    1.6349  107.0850   0   0   0
        86       1       1    1.8017    2.3966  108.4350   0   0   0
        87       1       1    1.9595    1.4043  109.6340   0   0   0
        88       1       1    1.8714    2.0459  111.0370   0   0   0
        89       1       1    1.9450    0.9910  112.1670   0   0   0
        90       1       1    1.7774    1.6278  113.5820   0   0   0
        91       1       1    1.9733    0.6249  114.6950   0   0   0
        92       1       1    1.7758    1.2391  116.0840   0   0   0
        93       1       1    1.7243    0.2470  117.2880   0   0   0
        94       1       1    1.6518    0.9652  118.6440   0   0   0
        95       1       1    1.5577    0.0233  119.8390   0   0   0
        96       1       1    1.6728    0.6713  121.2330   0   0   0
        97       1       1    1.7263   -0.4370  122.2850   0   0   0
        98       1       1    1.3960    0.0320  123.8580   0   0   0
        99       1       1    0.0000    0.0000  123.8580   0   0   0
       100       1       1   -0.5850   -0.1581  125.3186   0   0   0
       101       1       1    0.1699   -1.0074  126.3516   0   0   0
       102       1       1   -0.4727   -1.1972  127.7685   0   0   0
       103       1       1    0.3170   -1.9534  128.8658   0   0   0
       104       1       1   -0.3354   -1.7506  130.2183   0   0   0
       105       1       1    0.1306   -2.5432  131.4860   0   0   0
       106       1       1   -0.6257   -2.1656  132.7307   0   0   0
       107       1       1   -0.0264   -2.8432  133.9769   0   0   0
       108       1       1   -0.3719   -2.1205  135.2756   0   0   0
       109       1       1    0.0904   -3.0328  136.3956   0   0   0
       110       1       1   -0.3724   -2.4521  137.8058   0   0   0
       111       1       1   -0.1830   -3.2477  139.1316   0   0   0
       112       1       1   -0.6537   -2.3117  140.2524   0   0   0
       113       1       1   -0.8312   -3.0870  141.5597   0   0   0
       114       1       1   -0.6447   -2.2151  142.7589   0   0   0
       115       1       1   -0.5896   -3.0603  144.0411   0   0   0
       116       1       1   -0.3391   -2.1097  145.2753   0   0   0
       117       1       1   -0.5875   -2.9312  146.5804   0   0   0
       118       1       1   -0.6927   -2.0523  147.8407   0   0   0
       119       1       1   -0.5488   -2.8434  149.1367   0   0   0
       120       1       1   -0.4084   -1.9273  150.3764   0   0   0
       121       1       1   -0.2337   -2.6196  151.6805   0   0   0
       122       1       1   -0.4314   -1.7804  152.9473   0   0   0
       123       1       1   -0.2059   -2.5025  154.2679   0   0   0
       124       1       1   -0.4706   -1.4806  155.3991   0   0   0
       125       1       1   -0.0863   -2.1299  156.7446   0   0   0
       126       1       1   -0.2996   -1.2660  158.0062   0   0   0
       127       1       1    0.5085   -1.5739  159.1964   0   0   0
       128       1       1   -0.1188   -0.9860  160.4698   0   0   0
       129       1       1    0.3847   -1.7203  161.7784   0   0   0
       130       1       1   -0.1355   -1.0284  163.0974   0   0   0
       131       1       1    0.2246   -1.6943  164.3784   0   0   0
       132       1       1   -0.0998   -0.7105  165.5340   0   0   0
       133       1       1    0.3312   -1.3609  166.8315   0   0   0
       134       1       1   -0.0034   -0.4334  168.0707   0   0   0
       135       1       1    0.2552   -1.1309  169.4108   0   0   0
       136       1       1   -0.0057   -0.2248  170.6287   0   0   0
       137       1       1    0.3987   -0.9312  171.9906   0   0   0
       138       1       1    0.2820   -0.0505  173.1761   0   0   0
       139       1       1    0.6852   -0.7089  174.5149   0   0   0
       140       1       1    0.6798    0.2406  175.6949   0   0   0
       141       1       1    0.7406   -0.4082  177.0855   0   0   0
       142       1       1    0.7345    0.6372  178.2356   0   0   0
       143       1       1    0.7029    0.1383  179.6810   0   0   0
       144       1       1    0.8770    1.1978  180.7692   0   0   0
       145       1       1    0.8198    0.5216  182.0945   0   0   0
       146       1       1    0.7219    1.3829  183.3996   0   0   0
       147       1       1    0.7314    0.6011  184.7558   0   0   0
       148       1       1    0.7556    1.4763  186.0428   0   0   0
       149       1       1    0.9778    0.7968  187.3992   0   0   0
       150       1       1    0.3291    1.6507  188.4987   0   0   0
       151       1       1    0.5938    1.0614  189.8837   0   0   0
       152       1       1    0.3309    1.9727  191.0599   0   0   0
       153       1       1    0.5123    1.2911  192.4385   0   0   0
       154       1       1    0.1799    2.2367  193.5250   0   0   0
       155       1       1    0.3826    1.5257  194.8560   0   0   0
       156       1       1    0.5362    2.4202  196.1010   0   0   0
       157       1       1    0.4520    1.7050  197.5036   0   0   0
       158       1       1    0.5474    2.5461  198.8076   0   0   0
       159       1       1    0.7269    1.8418  200.1515   0   0   0
       160       1       1    0.8510    2.6775  201.4088   0   0   0
       161       1       1    1.1760    1.7894  202.6917   0   0   0
       162       1       1    1.3962    2.7233  203.9234   0   0   0
       163       1       1    1.2371    1.9382  205.2809   0   0   0
       164       1       1    0.9574    2.7896  206.4993   0   0   0
       165       1       1    1.5048    2.1881  207.7810   0   0   0
       166       1       1    0.9789    2.9414  209.0548   0   0   0
       167       1       1    1.2145    2.0599  210.2949   0   0   0
       168       1       1    1.1079    2.7520  211.6817   0   0   0
       169       1       1    1.6081    1.9473  212.8801   0   0   0
       170       1       1    1.3043    2.7257  214.1210   0   0   0
       171       1       1    1.8129    2.1554  215.5045   0   0   0
       172       1       1    1.4659    2.9346  216.7517   0   0   0
       173       1       1    1.8470    2.2985  218.0773   0   0   0
       174       1       1    1.2600    3.0246  219.3415   0   0   0
       175       1       1    1.7642    2.3286  220.5796   0   0   0
       176       1       1    1.3934    2.9958  221.9575   0   0   0
       177       1       1    1.9082    2.2008  223.2144   0   0   0
       178       1       1    1.5219    2.9284  224.5500   0   0   0
       179       1       1    1.9169    2.0258  225.7010   0   0   0
       180       1       1    1.9447    2.7938  227.1110   0   0   0
       181       1       1    2.1571    1.8610  228.3450   0   0   0
       182       1       1    1.8941    2.5854  229.7050   0   0   0
       183       1       1    1.9404    1.6349  230.9430   0   0   0
       184       1       1    1.8017    2.3966  232.2930   0   0   0
       185       1       1    1.9595    1.4043  233.4920   0   0   0
       186       1       1    1.8714    2.0459  234.8950   0   0   0
       187       1       1    1.9450    0.9910  236.0250   0   0   0
       188       1       1    1.7774    1.6278  237.4400   0   0   0
       189       1       1    1.9733    0.6249  238.5530   0   0   0
       190       1       1    1.7758    1.2391  239.9420   0   0   0
       191       1       2    1.7243    0.2470  241.1460   0   0   0
       192       1       2    1.6518    0.9652  242.5020   0   0   0
       193       1       2    1.5577    0.0233  243.6970   0   0   0
       194       1       2    1.6728    0.6713  245.0910   0   0   0
       195       1       2    1.7263   -0.4370  246.1430   0   0   0
       196       1       2    1.3960    0.0320  247.7160   0   0   0
 
Bonds
 
       1         1         1       2
       2         1         2       3
       3         1         3       4
       4         1         4       5
       5         1         5       6
       6         1         6       7
       7         1         7       8
       8         1         8       9
       9         1         9      10
      10         1        10      11
      11         1        11      12
      12         1        12      13
      13         1        13      14
      14         1        14      15
      15         1        15      16
      16         1        16      17
      17         1        17      18
      18         1        18      19
      19         1        19      20
      20         1        20      21
      21         1        21      22
      22         1        22      23
      23         1        23      24
      24         1        24      25
      25         1        25      26
      26         1        26      27
      27         1        27      28
      28         1        28      29
      29         1        29      30
      30         1        30      31
      31         1        31      32
      32         1        32      33
      33         1        33      34
      34         1        34      35
      35         1        35      36
      36         1        36      37
      37         1        37      38
      38         1        38      39
      39         1        39      40
      40         1        40      41
      41         1        41      42
      42         1        42      43
      43         1        43      44
      44         1        44      45
      45         1        45      46
      46         1        46      47
      47         1        47      48
      48         1        48      49
      49         1        49      50
      50         1        50      51
      51         1        51      52
      52         1        52      53
      53         1        53      54
      54         1        54      55
      55         1        55      56
      56         1        56      57
      57         1        57      58
      58         1        58      59
      59         1        59      60
      60         1        60      61
      61         1        61      62
      62         1        62      63
      63         1        63      64
      64         1        64      65
      65         1        65      66
      66         1        66      67
      67         1        67      68
      68         1        68      69
      69         1        69      70
      70         1        70      71
      71         1        71      72
      72         1        72      73
      73         1        73      74
      74         1        74      75
      75         1        75      76
      76         1        76      77
      77         1        77      78
      78         1        78      79
      79         1        79      80
      80         1        80      81
      81         1        81      82
      82         1        82      83
      83         1        83      84
      84         1        84      85
      85         1        85      86
      86         1        86      87
      87         1        87      88
      88         1        88      89
      89         1        89      90
      90         1        90      91
      91         1        91      92
      92         1        92      93
      93         1        93      94
      94         1        94      95
      95         1        95      96
      96         1        96      97
      97         1        97      98
      98         1        98      99
      99         1        99     100
     100         1       100     101
     101         1       101     102
     102         1       102     103
     103         1       103     104
     104         1       104     105
     105         1       105     106
     106         1       106     107
     107         1       107     108
     108         1       108     109
     109         1       109     110
     110         1       110     111
     111         1       111     112
     112         1       112     113
     113         1       113     114
     114         1       114     115
     115         1       115     116
     116         1       116     117
     117         1       117     118
     118         1       118     119
     119         1       119     120
     120         1       120     121
     121         1       121     122
     122         1       122     123
     123         1       123     124
     124         1       124     125
     125         1       125     126
     126         1       126     127
     127         1       127     128
     128         1       128     129
     129         1       129     130
     130         1       130     131
     131         1       131     132
     132         1       132     133
     133         1       133     134
     134         1       134     135
     135         1       135     136
     136         1       136     137
     137         1       137     138
     138         1       138     139
     139         1       139     140
     140         1       140     141
     141         1       141     142
     142         1       142     143
     143         1       143     144
     144         1       144     145
     145         1       145     146
     146         1       146     147
     147         1       147     148
     148         1       148     149
     149         1       149     150
     150         1       150     151
     151         1       151     152
     152         1       152     153
     153         1       153     154
     154         1       154     155
     155         1       155     156
     156         1       156     157
     157         1       157     158
     158         1       158     159
     159         1       159     160
     160         1       160     161
     161         1       161     162
     162         1       162     163
     163         1       163     164
     164         1       164     165
     165         1       165     166
     166         1       166     167
     167         1       167     168
     168         1       168     169
     169         1       169     170
     170         1       170     171
     171         1       171     172
     172         1       172     173
     173         1       173     174
     174         1       174     175
     175         1       175     176
     176         1       176     177
     177         1       177     178
     178         1       178     179
     179         1       179     180
     180         1       180     181
     181         1       181     182
     182         1       182     183
     183         1       183     184
     184         1       184     185
     185         1       185     186
     186         1       186     187
     187         1       187     188
     188         1       188     189
     189         1       189     190
     190         1       190     191
     191         1       191     192
     192         1       192     193
     193         1       193     194
     194         1       194     195
     195         1       195     196
 
Angles
 
           1           1           1           2           3
           2           1           2           3           4
           3           1           3           4           5
           4           1           4           5           6
           5           1           5           6           7
           6           1           6           7           8
           7           1           7           8           9
           8           1           8           9          10
           9           1           9          10          11
          10           1          10          11          12
          11           1          11          12          13
          12           1          12          13          14
          13           1          13          14          15
          14           1          14          15          16
          15           1          15          16          17
          16           1          16          17          18
          17           1          17          18          19
          18           1          18          19          20
          19           1          19          20          21
          20           1          20          21          22
          21           1          21          22          23
          22           1          22          23          24
          23           1          23          24          25
          24           1          24          25          26
          25           1          25          26          27
          26           1          26          27          28
          27           1          27          28          29
          28           1          28          29          30
          29           1          29          30          31
          30           1          30          31          32
          31           1          31          32          33
          32           1          32          33          34
          33           1          33          34          35
          34           1          34          35          36
          35           1          35          36          37
          36           1          36          37          38
          37           1          37          38          39
          38           1          38          39          40
          39           1          39          40          41
          40           1          40          41          42
          41           1          41          42          43
          42           1          42          43          44
          43           1          43          44          45
          44           1          44          45          46
          45           1          45          46          47
          46           1          46          47          48
          47           1          47          48          49
          48           1          48          49          50
          49           1          49          50          51
          50           1          50          51          52
          51           1          51          52          53
          52           1          52          53          54
          53           1          53          54          55
          54           1          54          55          56
          55           1          55          56          57
          56           1          56          57          58
          57           1          57          58          59
          58           1          58          59          60
          59           1          59          60          61
          60           1          60          61          62
          61           1          61          62          63
          62           1          62          63          64
          63           1          63          64          65
          64           1          64          65          66
          65           1          65          66          67
          66           1          66          67          68
          67           1          67          68          69
          68           1          68          69          70
          69           1          69          70          71
          70           1          70          71          72
          71           1          71          72          73
          72           1          72          73          74
          73           1          73          74          75
          74           1          74          75          76
          75           1          75          76          77
          76           1          76          77          78
          77           1          77          78          79
          78           1          78          79          80
          79           1          79          80          81
          80           1          80          81          82
          81           1          81          82          83
          82           1          82          83          84
          83           1          83          84          85
          84           1          84          85          86
          85           1          85          86          87
          86           1          86          87          88
          87           1          87          88          89
          88           1          88          89          90
          89           1          89          90          91
          90           1          90          91          92
          91           1          91          92          93
          92           1          92          93          94
          93           1          93          94          95
          94           1          94          95          96
          95           1          95          96          97
          96           1          96          97          98
          97           1          97          98          99
          98           1          98          99         100
          99           1          99         100         101
         100           1         100         101         102
         101           1         101         102         103
         102           1         102         103         104
         103           1         103         104         105
         104           1         104         105         106
         105           1         105         106         107
         106           1         106         107         108
         107           1         107         108         109
         108           1         108         109         110
         109           1         109         110         111
         110           1         110         111         112
         111           1         111         112         113
         112           1         112         113         114
         113           1         113         114         115
         114           1         114         115         116
         115           1         115         116         117
         116           1         116         117         118
         117           1         117         118         119
         118           1         118         119         120
         119           1         119         120         121
         120           1         120         121         122
         121           1         121         122         123
         122           1         122         123         124
         123           1         123         124         125
         124           1         124         125         126
         125           1         125         126         127
         126           1         126         127         128
         127           1         127         128         129
         128           1         128         129         130
         129           1         129         130         131
         130           1         130         131         132
         131           1         131         132         133
         132           1         132         133         134
         133           1         133         134         135
         134           1         134         135         136
         135           1         135         136         137
         136           1         136         137         138
         137           1         137         138         139
         138           1         138         139         140
         139           1         139         140         141
         140           1         140         141         142
         141           1         141         142         143
         142           1         142         143         144
         143           1         143         144         145
         144           1         144         145         146