LAMMPS (16 Mar 2018)
#lammps script for united atom polymer simulation (full-scale run)

# 1. INITIALIZATION
#allows pair, bond, bending and dihedral interactions
atom_style molecular

  # periodic (video game) boundaries in all cartesian directions
boundary p p s

  # uses real units (instead of units based on pair potential parameters).  List of units used in manual
units real

###########
# 2. ATOM DEFINITION
##########

   ##
   # Read in data from starting configuration file
   ##

#read_data chainconfig.dat

 #use to restart
read_restart RESTART
  orthogonal box = (-200 -200 0) to (200 200 248.000)
  3 by 4 by 2 MPI processor grid
  196 atoms
  195 bonds
  194 angles
  193 dihedrals
  2 = max # of 1-2 neighbors
  2 = max # of 1-3 neighbors
  4 = max # of 1-4 neighbors
  6 = max # of special neighbors

   ##
   # Specify the nature of the bond interactions
   ##


bond_style harmonic
bond_coeff 1 450 1.54

special_bonds lj 0.0 0.0 0.0 angle no dihedral no

angle_style harmonic
angle_coeff 1 62.1  114.00

dihedral_style opls
dihedral_coeff * 1.4110 -0.2708 3.143 0.0

mass * 14.0

pair_style lj/cut 14.0
pair_coeff 1 1 0.0912 3.95 14.0
#pair_modify tail yes


group freeze type 2
12 atoms in group freeze
fix startend freeze setforce 0.0 0.0 0.0

################
# 3.  Simulation Settings
###############

neighbor        2.0 bin
neigh_modify    every 1 delay 0 check yes



# Define some variables
variable Lx          equal xhi-xlo   # Ang
variable Ly          equal yhi-ylo   # Ang
variable Lz          equal zhi-zlo   # Ang

variable dz          equal ${Lz}/30  # Ang
variable dz          equal 248.0/30  

variable zzlo        equal zlo  # Ang
variable zzhi        equal zhi  # Ang
variable vol         equal ${Lx}*${Ly}*${Lz}  # Ang^3
variable vol         equal 400*${Ly}*${Lz}  
variable vol         equal 400*400*${Lz}  
variable vol         equal 400*400*248.000
variable TEMP        equal 300.00 # K
variable TThi        equal 320.00 # K
variable TTlo        equal 280.00 # K
variable dt          equal 1.25 # fs

timestep     ${dt}
timestep     1.25

variable zlo1      equal ${zzlo}+${dz}
variable zlo1      equal 0+${dz}
variable zlo1      equal 0+8.2666
variable zlo2      equal ${zzlo}+2*${dz}
variable zlo2      equal 0+2*${dz}
variable zlo2      equal 0+2*8.2666
variable zhi1      equal ${zzlo}+28*${dz}
variable zhi1      equal 0+28*${dz}
variable zhi1      equal 0+28*8.2666
variable zhi2      equal ${zzlo}+29*${dz}
variable zhi2      equal 0+29*${dz}
variable zhi2      equal 0+29*8.2666

# heat layers

region          hot  block  INF INF INF INF ${zlo1} ${zlo2}
region          cold block INF INF INF INF ${zhi1} ${zhi2}
compute         Thot all temp/region hot
compute         Tcold all temp/region cold


# 1st equilibration run
fix             1 all nvt temp ${TEMP} ${TEMP} 50
fix             1 all nvt temp 300 ${TEMP} 50
fix             1 all nvt temp 300 300 50
thermo          100
run             1000
Unused restart file peratom fix info:
  fix style: STORE, fix ID: layers_COMPUTE_STORE
Neighbor list info ...
  update every 1 steps, delay 0 steps, check yes
  max neighbors/atom: 2000, page size: 100000
  master list distance cutoff = 16
  ghost atom cutoff = 16
  binsize = 8, bins = 50 50 31
  1 neighbor lists, perpetual/occasional/extra = 1 0 0
  (1) pair lj/cut, perpetual
      attributes: half, newton on
      pair build: half/bin/newton
      stencil: half/bin/3d/newton
      bin: standard
Per MPI rank memory allocation (min/avg/max) = 0.4741 | 1.964 | 9.62 Mbytes
Step Temp E_pair E_mol TotEng Press 
164025000    287.24417    95829.155     168.4975    96164.615      663.916 
164025100    317.75122    95829.298    187.77489    96201.768    663.15781 
164025200    273.15445    95829.468    191.65919    96179.901    663.38961 
164025300    303.20754    95829.468    208.84924    96214.559     663.0135 
164025400    309.21727    95829.345    177.13493    96186.215    663.32925 
164025500    292.53365    95829.287    178.76838    96178.093    663.48595 
164025600    288.90031    95829.228    176.02443    96173.178    663.33526 
164025700    295.11951    95829.121    191.18583    96191.847    663.68553 
164025800    292.05232    95829.036    162.89958    96161.693    663.53916 
164025900    289.44043    95829.179    185.71209    96183.131    663.56045 
164026000    306.43305    95829.261    194.32412    96201.702     663.3845 
Loop time of 0.0637485 on 24 procs for 1000 steps with 196 atoms

Performance: 1694.158 ns/day, 0.014 hours/ns, 15686.650 timesteps/s
99.9% CPU use with 24 MPI tasks x no OpenMP threads

MPI task timing breakdown:
Section |  min time  |  avg time  |  max time  |%varavg| %total
---------------------------------------------------------------
Pair    | 3.8049e-05 | 0.0009763  | 0.011207   |   0.0 |  1.53
Bond    | 5.2116e-05 | 0.00264    | 0.030943   |  15.4 |  4.14
Neigh   | 0.00065319 | 0.00077474 | 0.0008103  |   0.0 |  1.22
Comm    | 0.00036175 | 0.0056229  | 0.052634   |  18.5 |  8.82
Output  | 0.00031622 | 0.00032566 | 0.00038221 |   0.0 |  0.51
Modify  | 0.0042206  | 0.048483   | 0.057536   |   8.9 | 76.05
Other   |            | 0.004926   |            |       |  7.73

Nlocal:    8.16667 ave 97 max 0 min
Histogram: 22 0 0 0 0 0 0 0 0 2
Nghost:    12.4167 ave 122 max 0 min
Histogram: 20 0 2 0 0 0 0 0 0 2
Neighs:    74.5 ave 887 max 0 min
Histogram: 22 0 0 0 0 0 0 0 0 2

Total # of neighbors = 1788
Ave neighs/atom = 9.12245
Ave special neighs/atom = 5.93878
Neighbor list builds = 12
Dangerous builds = 0
velocity        all scale ${TEMP}
velocity        all scale 300
unfix           1

# Second Equilibration
fix             1 all nve
fix             hot all langevin ${TThi} ${TThi}  50.0 59804  tally yes
fix             hot all langevin 320 ${TThi}  50.0 59804  tally yes
fix             hot all langevin 320 320  50.0 59804  tally yes
fix             cold all langevin ${TTlo} ${TTlo} 50.0 287859 tally yes
fix             cold all langevin 280 ${TTlo} 50.0 287859 tally yes
fix             cold all langevin 280 280 50.0 287859 tally yes
fix_modify      hot temp Thot
fix_modify      cold temp Tcold

variable        tdiff equal c_Thot-c_Tcold
thermo_style    custom step c_Thot c_Tcold f_hot f_cold v_tdiff
thermo            4000
run             800000
Per MPI rank memory allocation (min/avg/max) = 0.4745 | 2.089 | 10.37 Mbytes
Step c_Thot c_Tcold f_hot f_cold v_tdiff 
164026000    456.84924    441.65383           -0           -0    15.195412 
164028000    344.77427    270.22749   -9.2106634    10.248771     74.54678 
164032000    320.61745    203.42778   -7.5093757    11.617202    117.18967 
164036000    193.49763    403.45569   -22.630312    32.477194   -209.95805 
164040000    365.46505    143.60997   -24.670922    48.167598    221.85508 
164044000    469.27066    543.65548   -29.484801    71.110453   -74.384824 
164048000    242.39658    196.54871   -40.024792    66.477278     45.84787 
164052000    510.60863    242.66331   -55.311533    83.749188    267.94531 
164056000    647.93129    212.42413   -54.702663    91.291644    435.50716 
164060000    356.98802    334.71421   -67.744193    93.588059    22.273807 
164064000    283.91646    307.02062   -74.804683    120.74288   -23.104163 
164068000    501.27922    171.55677   -106.00186    125.96922    329.72245 
164072000    438.19814    466.10601   -104.51551    129.39848   -27.907873 
164076000     270.8928    417.43819   -108.94292    139.37629   -146.54538 
164080000    474.77441    189.13858   -109.34667     137.8993    285.63583 
164084000     255.1244    432.64361    -110.6413    138.51571   -177.51921 
164088000    270.91551    358.84455   -106.99317     130.7573    -87.92904 
164092000     486.4876    304.61844      -105.07    151.81341    181.86916 
164096000    371.18182    441.91752   -117.23121    168.34938     -70.7357 
164100000     349.5249    408.20181     -134.818    162.70401   -58.676904 
164104000     412.6454    446.74902   -151.27014       159.22   -34.103613 
164108000    280.46509    199.04162   -153.57083    175.03697    81.423478 
164112000    500.59084    458.19482   -175.69926    156.99366    42.396019 
164116000    447.63519    254.34551   -156.46896    174.22867    193.28968 
164120000    395.34814     340.9019   -152.92668    185.09992    54.446239 
164124000     337.5612    352.53571   -169.63057    198.40125   -14.974517 
164128000    181.75166    260.16979   -165.09357    211.07054   -78.418133 
164132000     412.2189    573.88942   -186.58283    209.17056   -161.67052 
164136000    219.67364    429.96646   -193.01792    216.59987   -210.29282 
164140000    349.98663    328.42234   -207.80556    237.33551    21.564287 
164144000    272.33213    404.38824   -216.19901    252.28071    -132.0561 
164148000    402.83621    328.39101   -226.65445    256.62806    74.445198 
164152000    511.97924    326.37046   -254.37691    260.76763    185.60878 
164156000    345.97814    112.65206   -258.02501    276.10729    233.32609 
164160000     531.2127    269.17752   -276.38906    276.50138    262.03518 
164164000     658.8513    461.43844   -279.58175    283.20214    197.41286 
164168000    322.26465    378.55736    -297.2865    299.71625   -56.292707 
164172000    402.08828    502.19715    -316.5853    301.90742   -100.10887 
164176000    445.60653    266.81177   -315.11494    343.21806    178.79476 
164180000    423.02589    287.80643   -347.78071    363.82162    135.21946 
164184000    419.73838    293.97002   -358.33552    376.34148    125.76836 
164188000    494.41209    389.46204   -392.44211    377.61612    104.95005 
164192000    364.84549    353.59575   -384.61996    392.54506    11.249738 
164196000    390.85232    293.59891     -370.467    409.60064     97.25341 
164200000    213.45369    291.46734   -390.73421    398.80608    -78.01365 
164204000    214.60188     338.8318   -382.97689    392.07993   -124.22992 
164208000    260.74667    366.40473   -378.97333    384.83319   -105.65805 
164212000    582.27026     255.2255    -388.1268      385.337    327.04476 
164216000     470.6988    369.88422   -376.19474    389.92434    100.81458 
164220000    459.03961      386.065   -385.73084    399.64724    72.974613 
164224000    469.43629    328.47304   -404.62828    392.04158    140.96325 
164228000    280.89115    314.28293   -406.91266    421.53324   -33.391775 
164232000    334.44094    356.07164   -424.20461    435.37209   -21.630697 
164236000    462.20337     180.8469    -429.1032     451.1428    281.35647 
164240000    581.39081    256.77793   -431.29408    465.25319    324.61288 
164244000    316.27542    320.93837   -412.11778    468.73767   -4.6629556 
164248000    346.82312    251.85379   -428.36033    469.16304    94.969338 
164252000    388.45064      269.282   -432.35851    471.56862    119.16864 
164256000    515.75561     268.0738   -446.26602     480.8455     247.6818 
164260000    133.06641    322.35782   -435.90918    461.11256   -189.29141 
164264000    242.62284    422.64164   -451.27848    457.07362    -180.0188 
164268000    475.12961    260.34856   -483.56447    474.81479    214.78104 
164272000    365.30352    283.42094   -457.48279    490.37553     81.88258 
164276000    556.01393    353.83081   -441.94932    490.57519    202.18312 
164280000    341.74653    400.59926   -450.99716    495.16495   -58.852736 
164284000    347.16017    292.71136   -466.40693    503.88854    54.448804 
164288000    277.56878    531.89148   -471.59811    505.61704    -254.3227 
164292000    390.20707    292.25179   -479.92439    506.96383    97.955278 
164296000    404.65969    820.86757   -491.31606    503.13294   -416.20788 
164300000     211.5391    445.25114   -475.71115    504.67719   -233.71204 
164304000    371.73441    449.69777   -472.51033    516.11338   -77.963357 
164308000    339.15892    304.16307   -476.74165    514.58517    34.995844 
164312000    399.80169     341.4599   -476.08636    517.86998    58.341782 
164316000    331.60299    663.17241   -483.25066    515.37741   -331.56942 
164320000    686.57388    316.49309   -508.99353     521.0781    370.08078 
164324000    571.79984    354.99357    -513.3542    538.80355    216.80627 
164328000    428.89547    430.20295   -520.60408    536.09001   -1.3074798 
164332000    593.33231    318.58682   -545.00751    551.79557     274.7455 
164336000    379.84619    294.16292   -521.55386    561.87158    85.683271 
164340000    273.68116    152.31091   -527.43966    553.05862    121.37025 
164344000     366.9047    383.82015   -537.64925    556.55408   -16.915447 
164348000    169.36848    217.25229   -556.91671    563.48677   -47.883812 
164352000     290.0015    271.76514   -561.91874      577.817    18.236356 
164356000    344.71895    187.83239   -577.38697    596.46545    156.88656 
164360000    343.66961    356.17839   -583.16754    592.96208   -12.508785 
164364000    703.18786    558.80129   -579.24547    607.43219    144.38656 
164368000    567.11772     404.9255   -584.06832    617.30823    162.19222 
164372000    257.85246     358.8745   -587.31608    611.89779   -101.02205 
164376000    293.37673    229.95346   -601.50559    613.99142    63.423271 
164380000    462.14771    367.10498   -606.51254    602.74659    95.042726 
164384000    326.72511    453.37927   -603.96294    630.64893   -126.65416 
164388000    490.46983    291.92673    -616.2361    632.98737     198.5431 
164392000    329.87815    199.99354   -612.09169    656.68423    129.88461 
164396000    402.97621     327.3081   -622.44976    655.64572     75.66811 
164400000    306.13561    461.94167    -647.6617    642.81248   -155.80606 
164404000    244.83032     304.8543   -649.92723    652.60702   -60.023981 
164408000    193.51771    478.43654   -658.45562    665.95643   -284.91883 
164412000    269.59016    178.34845   -663.86634    669.63571    91.241712 
164416000    390.77849    224.64194   -675.89155    667.04567    166.13656 
164420000    245.05141    233.53173   -670.72013    674.29367    11.519678 
164424000    378.56502    547.93096   -663.75557    664.87153   -169.36594 
164428000    468.90469    201.80898   -663.85019    677.26882    267.09571 
164432000    520.18637    279.79536   -663.07891    678.62844    240.39101 
164436000    352.66092    238.99434   -659.35392     706.5601    113.66658 
164440000     611.0711    343.41661   -667.84231    693.30898    267.65449 
164444000    561.54708    285.49786   -675.25444    702.57035    276.04921 
164448000    423.55152    290.05624   -677.50894    706.39907    133.49527 
164452000    406.64955     237.0751    -700.8248    721.20346    169.57445 
164456000    263.36121    468.60954   -687.86721    712.12776   -205.24833 
164460000    389.55202    445.34444    -697.1317    710.77581   -55.792419 
164464000    249.99246    294.16565   -704.35384    720.98847   -44.173193 
164468000    315.50978     348.8339   -712.70093    718.99613   -33.324119 
164472000    493.32346    171.47278   -703.19476    730.09146    321.85068 
164476000    458.63837     264.6687   -723.34727     730.6162    193.96967 
164480000    292.18038     186.6627   -724.91104     712.2278    105.51768 
164484000    244.59681    447.18553    -732.4717    740.27067   -202.58872 
164488000    415.54478     240.2291    -750.8809    742.29923    175.31568 
164492000    713.13115    555.81351   -758.13022    746.54634    157.31765 
164496000    334.14936    238.20968   -758.56608    759.51812    95.939679 
164500000    308.52379    230.33312   -742.01183    761.03207    78.190662 
164504000    454.34416    464.87385   -750.03171      771.429   -10.529693 
164508000    204.87965    255.40008   -755.69596    779.87176   -50.520429 
164512000    579.17427    229.19985   -751.15198    798.12718    349.97442 
164516000    638.16603    352.00321   -759.53017    803.06277    286.16282 
164520000    419.23943     265.3233   -778.21004    800.07147    153.91612 
164524000    643.96848    374.27017   -797.43068    809.42194     269.6983 
164528000    210.08497    236.35595   -801.82517     833.6422   -26.270979 
164532000    192.55106    298.35034   -803.51448    832.85342   -105.79928 
164536000    621.46376    467.85386   -810.84189    821.80878     153.6099 
164540000     416.0686    375.85107   -801.49721    818.63702    40.217521 
164544000    606.26131    213.09461   -800.57002    835.29119    393.16671 
164548000    194.14831    343.84745   -779.94712    817.29542   -149.69915 
164552000     268.5809    505.90012   -796.96575    813.52853   -237.31921 
164556000    455.87243    441.14397   -804.57629    813.16537    14.728466 
164560000    303.36906     362.0319   -790.54337    821.69559   -58.662841 
164564000    620.10914    191.04708   -781.91356    827.57123    429.06206 
164568000    370.65601    398.54396   -783.99838    838.49882   -27.887947 
164572000     683.7902    296.21572   -804.06761    829.06426    387.57448 
164576000    683.58258    170.81567   -800.63091    812.15055    512.76691 
164580000    394.22378    236.51292   -794.74052    813.28799    157.71086 
164584000    370.93275    214.12305   -780.91883    797.01415    156.80969 
164588000    213.12486    475.86501   -812.08054    803.72878   -262.74015 
164592000    365.36631    214.56929    -817.7918    832.58718    150.79703 
164596000    533.32048    278.01143   -822.63478    843.34758    255.30905 
164600000    472.33422    392.72352    -829.8579    833.83063    79.610701 
164604000    374.03964    393.86407   -821.36732    834.74864   -19.824436 
164608000    246.23007     173.5526   -825.93991    846.91707    72.677465 
164612000    212.66545    358.03907   -819.79809    853.54591   -145.37362 
164616000    232.61171    136.05746   -823.27467    871.32701    96.554241 
164620000    432.57696    332.87416   -850.74397    882.08807    99.702796 
164624000     531.0193    384.67378   -866.93175    893.33097    146.34553 
164628000     248.8981    395.68572   -848.93711    879.28349   -146.78762 
164632000    391.02082    419.59889   -861.61019    878.62243   -28.578071 
164636000    488.44986     308.5446   -852.90334    882.49951    179.90526 
164640000    386.57235    319.60607   -856.21742    896.57468    66.966278 
164644000    359.25178      253.387   -876.38003    909.25196    105.86479 
164648000    377.44417    434.75663     -873.743    909.77444   -57.312457 
164652000     323.6648    289.71142   -890.18207    927.12044    33.953371 
164656000    232.19589    397.01994   -905.64341    924.15166   -164.82404 
164660000    391.39242    351.53121   -916.49138    926.64888     39.86121 
164664000    414.37868    236.04154   -908.62072    931.66865    178.33715 
164668000    338.31566    242.42295   -915.32285    942.64176    95.892712 
164672000    335.06079    354.55395    -938.3156     954.5383   -19.493157 
164676000    572.55473    197.94308   -952.81667    976.63198    374.61165 
164680000    273.95281    160.75516   -975.55803    979.12772    113.19765 
164684000    340.22485    285.43613   -976.19064    987.77198    54.788721 
164688000    535.17311    428.24526   -977.58755    1004.7864    106.92785 
164692000    501.50072    297.40448   -979.68507    1011.6488    204.09624 
164696000    398.02533    172.03752   -978.49193    1031.9573    225.98781 
164700000    288.06953    422.39097   -986.68993    1026.1165   -134.32144 
164704000    356.37875     245.9127   -992.68801    1024.5216    110.46605 
164708000    378.42167    480.97471   -1001.0895    1015.0493   -102.55304 
164712000    254.71724    254.45723   -1010.0073     1028.911    0.2600134 
164716000    504.51657    261.00853   -1011.3373    1039.7819    243.50805 
164720000    379.97426    327.06706   -1013.2821    1036.2383    52.907207 
164724000    508.64059     405.6681   -1027.2178    1046.1629    102.97249 
164728000    377.42336    384.96625   -1024.4477    1048.7789   -7.5428903 
164732000    357.53912    285.54251   -1032.8099    1076.7276    71.996612 
164736000    404.59356    247.14008    -1067.281    1097.4639    157.45349 
164740000    315.34699    244.67481   -1085.4954     1105.339    70.672179 
164744000    314.51745     229.2843   -1088.2554    1136.8744    85.233149 
164748000    356.80054    593.78051   -1083.0985    1121.2466   -236.97997 
164752000    403.94452    136.27739   -1098.2624    1140.9362    267.66712 
164756000    381.68861    430.20052   -1118.3008     1143.318   -48.511906 
164760000    345.32434    270.45077   -1119.5947    1155.0063    74.873569 
164764000    514.53753    382.48783   -1144.3921    1153.8955     132.0497 
164768000    375.54561    183.58704    -1163.977    1168.3287    191.95857 
164772000    534.58226    304.39813   -1175.3975    1179.9011    230.18413 
164776000     405.9938    429.64376   -1182.6677    1193.2213    -23.64996 
164780000    340.93967    382.79069   -1204.1686     1225.351   -41.851028 
164784000     164.1359    252.93918   -1195.2361    1222.3265   -88.803279 
164788000    252.84352    195.29022    -1199.135    1232.8858    57.553302 
164792000    311.51217    243.91745   -1210.5237     1242.978    67.594717 
164796000    211.67484    307.00135   -1210.6489    1255.0501   -95.326508 
164800000    552.42318    254.41614   -1216.9928    1230.2068    298.00704 
164804000    352.73173    419.34277   -1227.6118     1238.249   -66.611037 
164808000    335.41715    572.24827   -1220.6766    1248.3818   -236.83112 
164812000    347.89383    450.61618   -1226.3338    1262.8285   -102.72234 
164816000    379.62409    589.91665   -1246.1896      1260.27   -210.29256 
164820000    498.05769    562.05071   -1273.0932     1279.668   -63.993024 
164824000    344.05423    528.39298   -1263.5406    1294.6249   -184.33875 
164826000    532.68696    351.86192   -1253.3682    1288.0423    180.82504 
Loop time of 62.1945 on 24 procs for 800000 steps with 196 atoms

Performance: 1389.190 ns/day, 0.017 hours/ns, 12862.867 timesteps/s
100.0% CPU use with 24 MPI tasks x no OpenMP threads

MPI task timing breakdown:
Section |  min time  |  avg time  |  max time  |%varavg| %total
---------------------------------------------------------------
Pair    | 0.0294     | 0.77951    | 6.4389     | 200.7 |  1.25
Bond    | 0.040476   | 2.1028     | 17.7       | 337.1 |  3.38
Neigh   | 0.4697     | 0.55146    | 0.5804     |   4.9 |  0.89
Comm    | 0.24444    | 4.1251     | 30.296     | 440.2 |  6.63
Output  | 0.0068409  | 0.0077797  | 0.0090526  |   0.4 |  0.01
Modify  | 14.586     | 46.075     | 52.19      | 199.8 | 74.08
Other   |            | 8.553      |            |       | 13.75

Nlocal:    8.16667 ave 97 max 0 min
Histogram: 21 1 0 0 0 0 0 0 1 1
Nghost:    12.4167 ave 121 max 0 min
Histogram: 20 0 1 1 0 0 0 0 1 1
Neighs:    74.2917 ave 882 max 0 min
Histogram: 21 1 0 0 0 0 0 0 1 1

Total # of neighbors = 1783
Ave neighs/atom = 9.09694
Ave special neighs/atom = 5.93878
Neighbor list builds = 8987
Dangerous builds = 0
unfix 1


# PRODUCTION

fix             1 all nve
fix             hot all langevin ${TThi} ${TThi}  50.0 59804  tally yes
fix             hot all langevin 320 ${TThi}  50.0 59804  tally yes
fix             hot all langevin 320 320  50.0 59804  tally yes
fix             cold all langevin ${TTlo} ${TTlo} 50.0 287859 tally yes
fix             cold all langevin 280 ${TTlo} 50.0 287859 tally yes
fix             cold all langevin 280 280 50.0 287859 tally yes
fix_modify      hot temp Thot
fix_modify      cold temp Tcold

variable        tdiff equal c_Thot-c_Tcold
thermo          4000

dump gigo all atom 4000 dump.cords_xyz.dat
dump_modify gigo scale no
dump vfgigo all custom 4000 dump.velo.dat id vx vy vz fx fy fz

# thermal conductivity calculation
# # reset langevin thermostats to zero energy accumulation
#
compute         ke all ke/atom
variable        temp atom c_ke/1.5/0.0019872

fix             ave all ave/time 100 40 4000 v_tdiff ave running
thermo_style    custom step temp c_Thot c_Tcold f_hot f_cold v_tdiff f_ave

#compute         layers all chunk/atom bin/1d z lower 0.05 units reduced
compute         layers all chunk/atom bin/1d z lower ${dz} units box
compute         layers all chunk/atom bin/1d z lower 8.2572 units box
fix             2 all ave/chunk  100 40 4000 layers v_temp file profile.langevin

run             32000000
Per MPI rank memory allocation (min/avg/max) = 0.4749 | 2.166 | 10.62 Mbytes
Step Temp c_Thot c_Tcold f_hot f_cold v_tdiff f_ave 
164826000    288.59589    532.68696    351.86192           -0           -0    180.82504            0 
164828000    279.77439    482.97462    213.69804   -9.1872436   -4.2683096    269.27658            0 
164832000    289.39863    383.84145    302.90557    3.9754535   -3.1527245    80.935881    6.4544202 
164836000    287.06932    395.49545    261.21208   -18.953051   -11.616691    134.28337    15.901331 
164840000    280.57806    658.18103    224.43214   -12.833449   0.18751037    433.74888    40.701708 
164844000    279.60457    259.30008    234.48362   -7.6344193    19.217662     24.81646    32.872479 
164848000     284.8216    427.45496    229.53992   -13.947498    27.012893    197.91504    31.068105 
164852000    284.28791     230.1115     201.7518   -36.782253    40.722432    28.359706     25.27189 
164856000    249.03238    279.00175     214.3382   -36.704075    54.599966    64.663551    25.314206 
164860000    268.66205    364.72175    297.52766   -44.209265    57.233932    67.194093    22.523677 
164864000    268.78674     519.6053    171.26437   -61.993555    61.628703    348.34093    24.487715 
164868000    243.79758     317.4556    335.59599   -60.494306    79.765698    -18.14039    26.532373 
164872000    269.31116    405.06379    373.24471   -71.598071    88.244786    31.819076    25.863231 
164876000    284.37598    469.16361     587.8198   -83.987169     77.96637   -118.65619    28.579446 
164880000    264.46055    357.02345    298.76532   -96.405426    79.366416    58.258126    32.043462 
164884000    297.43247    304.28329    402.26596   -81.646065    62.661209   -97.982675    32.621034 
164888000    246.82087    373.88353    329.38091   -72.449248    80.752876    44.502623    33.621882 
164892000    271.59613    383.36182    257.15634   -91.985058    91.554732    126.20548    31.896163 
164896000    284.11992    532.23614    225.86935   -114.80852    102.84942    306.36679    33.034823 
164900000    324.25286    641.99392    327.53081   -127.03216    94.232361    314.46311    32.988175 
164904000    299.14795     409.0968    292.14655   -146.77068    112.86279    116.95024    33.796605 
164908000    280.50919    294.78845    220.41181   -143.47174    144.37191     74.37664    35.288493 
164912000    269.73316    267.11488    466.38766   -157.32252    151.97057   -199.27278    34.851272 
164916000    272.50822    258.40089    373.03904   -142.04813    153.41599   -114.63815    35.789939 
164920000    287.12737    633.13259    168.40469   -146.20679    148.42046     464.7279    35.935041 
164924000    285.36587    298.00057    117.57467   -163.80787    152.82415    180.42591    34.613019 
164928000    261.18584     389.0589    428.80571   -156.43939    176.78385   -39.746812    36.092665 
164932000    244.40173    494.15769    229.09342   -151.38149    171.76923    265.06427    36.634541 
164936000    268.04438    325.09452    254.78249   -160.70731    177.19371    70.312024    35.783315 
164940000    271.78412    237.80619    321.83988   -169.55353    181.98264   -84.033683    34.113452 
164944000    273.19137    389.31008    271.73745   -167.31934    173.38247    117.57263    34.140113 
164948000    284.40735    157.20494    436.28698   -170.57149    167.33514   -279.08204    33.040593 
164952000    303.16462    349.09603    268.99206    -174.4291    154.11463    80.103968    33.748212 
164956000    276.96491    428.24591    286.51628   -167.43848    168.25741    141.72963    33.440325 
164960000    279.08937    261.20434    285.31908   -171.13503     179.4749   -24.114738    33.526613 
164964000    272.39806    317.89433    170.62637   -194.07002    197.64499    147.26796    32.629528 
164968000    292.51025    473.06908    405.54623   -197.95159    178.14505    67.522852    32.244997 
164972000    275.00471    561.93398     183.2038    -189.0551    194.62692    378.73017    33.111936 
164976000    289.97055    341.82608    198.31866   -206.70934    207.95004    143.50743    32.136237 
164980000    287.85973    560.78757     278.2131   -222.95501    207.70699    282.57447    32.154963 
164984000    285.61937    377.73207    359.56135   -233.37396    215.47762    18.170714    32.713666 
164988000    303.83702    603.11242    259.86016   -256.81197    229.56687    343.25226    32.864222 
164992000    290.88887    154.24445    293.50104    -248.3836    241.31539    -139.2566    32.828722 
164996000    296.13547    449.42153    253.96107   -253.14913    239.43324    195.46046    33.033424 
165000000    259.59966     218.9139    208.71381   -257.33215    258.68026    10.200094    32.136623 
165004000    278.31674    431.92125    385.95403   -246.45088    242.95734    45.967226    31.732619 
165008000    326.00164    322.86988    546.46009   -254.64599    223.36521   -223.59021    30.686891 
165012000     302.6807    569.61562    472.36086   -262.04696    236.67066    97.254767    31.433414 
165016000     259.5913    425.67898    272.82804   -259.91267    269.91201    152.85094    30.968378 
165020000    292.78816    201.27427    271.26697    -256.5441    264.79201   -69.992703    31.009947 
165024000    287.28002    520.85956    365.10004   -282.44136     280.9362    155.75952    30.094951 
165028000    259.00307    462.40598    225.75819   -296.67217    297.12664    236.64779    30.604483 
165032000    271.62322    258.73429    249.67638   -280.75686    304.76212    9.0579061    31.659337 
165036000    275.87078    466.36858    141.89962   -291.74931    312.64653    324.46896    30.779384 
165040000    279.01086    522.60584    412.33509   -296.35738    294.27563    110.27076    29.685364 
165044000    267.92276    550.83757    281.82326     -309.967    297.52814    269.01431    29.529848 
165048000    276.49482    301.56681    280.69206   -317.60584    305.21338    20.874754      29.5075 
165052000    268.95356    385.73681    320.55314     -316.264    318.13288    65.183674    29.733992 
165056000    279.78817    447.93704    227.67971   -330.08363    315.39991    220.25733    29.592194 
165060000    303.80184    176.70043    272.93726   -340.31324    308.30963   -96.236831    29.684976 
165064000    302.37208    290.97185    182.11223   -334.35647    310.58918    108.85962    30.254207 
165068000    283.89456     376.4515    178.97847   -345.52523    341.59453    197.47302    30.394699 
165072000    278.92268    276.04031    351.56617   -347.65964    343.25549   -75.525865    30.801132 
165076000    277.64442    521.92004    391.97054   -357.15787    356.54965     129.9495    31.087714 
165080000    288.79857    275.96583    220.45955    -360.7633    351.39859    55.506274    31.734581 
165084000     291.5561    492.66216    370.20934   -364.80486    362.46941    122.45282    31.899179 
165088000    270.04357    298.15561    294.98758   -369.11198    378.91801    3.1680271    31.887136 
165092000    302.27338    486.62009    405.92981   -382.53903    356.97266    80.690275    31.668213 
165096000    287.53301      257.393    242.60614   -371.96134    365.73966    14.786866    32.146616 
165100000    278.47517    398.35165    300.93906   -368.32184    383.61697    97.412585    32.502165 
165104000    292.95938    424.56552    372.76296   -382.69839     385.6534    51.802561    32.630255 
165108000    275.71884    358.29565    549.42665   -397.55797    396.34159   -191.13101    32.311306 
165112000    304.86535    365.62792    561.81347   -398.65434    388.59746   -196.18555    32.124574 
165116000    292.36962    575.08527    194.12512   -425.29407    411.43198    380.96015     32.25004 
165120000    289.49403    329.58104    203.15385   -433.67531    414.86249    126.42719    32.712633 
165124000    260.29461    344.01847     352.3301   -434.64015     413.2873   -8.3116301    33.156128 
165128000    284.09947    493.97362    393.85607   -443.13196    439.32958    100.11755    33.863396 
165132000    291.75374    703.35809    377.07806   -455.02172     440.7981    326.28003    33.980886 
165136000    274.31135    331.54787    328.81723   -459.90063     460.6628    2.7306391    33.419058 
165140000    273.49381     349.0674    453.11153   -477.61049    475.73973   -104.04412    33.514845 
165144000    283.16537    280.37585      301.851   -480.72079    481.88458    -21.47515    33.085126 
165148000    281.43145     564.4813    194.85663   -494.70865    496.14215    369.62468    32.953961 
165152000    303.59236     674.2275    346.58364   -514.82916    496.54057    327.64386     33.67326 
165156000    309.60039    377.24535    236.01244   -530.88976    506.50675    141.23291    33.994153 
165160000     291.5569    359.86736    183.91302   -533.61618     517.7983    175.95434    33.822682 
165164000    295.72396    374.83199    230.89141   -530.46089    529.60175    143.94059      34.1644 
165168000    301.07475    469.79386    324.04047   -542.94249    528.29438    145.75339    34.923924 
165172000    287.23678    191.91031    273.15665    -548.8945    547.95798   -81.246346    34.605621 
165176000    287.74981    290.70588    534.89666   -559.40116    551.59522   -244.19078    34.734293 
165180000    267.41381    547.15429    361.09604   -570.85761    560.15632    186.05825    34.975328 
165184000    253.38276    315.77345    287.00756   -564.69784    569.40251    28.765888    34.299995 
165188000    276.38076    551.69976    341.18112   -571.48689    562.20048    210.51864    34.391517 
165192000    285.12149    576.55722    419.21228   -579.84686    565.69085    157.34494    33.940695 
165196000    281.73476    516.74555    210.95002   -581.05793    577.12937    305.79553    34.187068 
165200000    300.05099    415.41961    349.29277   -583.79581    563.24981    66.126839    34.087186 
165204000     243.8861    574.33414    306.83392   -571.46957    567.54049    267.50022    33.976371 
165208000    260.80446    332.82151    333.95972   -576.66857    577.76686   -1.1382138    33.688627 
165212000    291.70235    383.33318    361.89767   -581.30138    570.33204    21.435509    33.933347 
165216000    303.62778    297.40577    400.18837    -579.5301    568.26317    -102.7826    34.051636 
165220000    288.56248    312.30281    187.09136   -588.19266    570.23387    125.21145    34.260266 
165224000    280.89049    408.86897    286.19602   -579.18125     579.9662    122.67296    34.098723 
165228000    276.43387     414.4267    343.54889   -572.36785    589.04403    70.877809    34.480318 
165232000    291.47709    572.74751    401.67829   -593.85268    588.52497    171.06921    34.471515 
165236000    278.28786    393.21741    237.61147   -620.73113    595.93269    155.60594    33.962197 
165240000    306.74966    450.58183    391.17397    -623.4927    621.07116    59.407866    33.620438 
165244000    286.03845    371.73954     174.5722   -634.11006    620.16125    197.16734    33.637581 
165248000     245.8168    389.15447    240.62284   -637.74174    647.29201    148.53164      33.3739 
165252000    280.87801    295.32682    293.08023    -663.3003    658.94687    2.2465846    33.693485 
165256000    306.71135    345.23856    248.84402    -686.5926    660.73246     96.39454    33.883968 
165260000    288.66972    486.00337    239.31439   -666.76678    664.30945    246.68898    34.149679 
165264000    265.04724    478.70269    328.65937   -661.19829    677.89587    150.04333    34.611387 
165268000    264.30905    179.61836    267.97552   -668.72543    684.41424   -88.357163    35.043655 
165272000     290.2943    407.83837    444.31137   -685.24292    686.47378   -36.473005    35.177757 
165276000    266.73092    322.89724     176.9607   -693.28251    695.86086    145.93653    34.904533 
165280000    271.87965     500.1132    312.93938   -702.83846     705.8092    187.17382    35.554519 
165284000    249.16954    210.46296    293.49646   -694.39038    716.71391   -83.033508    35.473899 
165288000    244.20874    282.29665    345.73604   -702.90316    734.45969   -63.439393    35.416347 
165292000    273.85616    518.70438    271.19422   -727.71553    719.01397    247.51015    35.362347 
165296000    293.34561     616.0295    529.33047     -738.538    713.01445    86.699032    35.754243 
165300000     309.4903    398.06431    300.83273   -743.39623    723.36395    97.231581    35.864881 
165304000    283.14368    258.48576    240.09852   -737.02113    726.99599    18.387244    35.708393 
165308000    324.35363    405.07225    534.74796   -746.82412    715.41803    -129.6757    35.729972 
165312000    312.98489    363.22483    202.55037   -746.20129    727.12499    160.67446    35.837345 
165316000    307.86185    236.95997    505.20555   -746.18657    714.61132   -268.24558    35.795282 
165320000    282.50728    344.19027    184.19498   -726.66042    728.13924    159.99529    35.918182 
165324000    284.62533    276.46384    253.45009   -731.15145    728.32103     23.01375    35.943135 
165328000    266.68585    497.29742    420.72312   -755.15964     741.6098    76.574307    35.587019 
165332000    285.44514    521.61114    441.10424   -737.59476    753.30804      80.5069    35.617588 
165336000    298.78751    375.17464    286.90866   -761.14543    747.36112    88.265974    35.816681 
165340000    298.95788    408.41949    249.77659   -771.55379    769.52717     158.6429    35.800311 
165344000    263.77218    431.79922    326.96407   -774.65647    766.48431    104.83515    35.784914 
165348000    295.73491    375.86946    314.54663   -773.27857    763.77674    61.322833    35.997725 
165352000     281.6681     405.7205    279.75199   -763.76414    750.11545    125.96851    36.028995 
165356000    305.02185    397.76354    321.86341   -772.25859    749.18221    75.900122    36.153358 
165360000    275.67296    325.91542    393.02024   -766.25593    760.50978   -67.104824    36.168641 
165364000    276.20381    542.25741    294.16816   -795.63817    784.91351    248.08925    36.302303 
165368000    269.98107    328.43244    323.85403   -790.27727    801.10046    4.5784055     36.48858 
165372000    287.02266    345.01491    292.25499   -799.07361    803.66924    52.759922    36.469684 
165376000    287.49328    247.46889    472.77225   -826.38673    790.63126   -225.30337    36.243497 
165380000    272.39215    381.82356    208.33389   -810.27906    798.82946    173.48966    36.238957 
165384000    288.03404    420.15905    443.12355   -809.32658    812.57927   -22.964497    36.146017 
165388000    299.98194    428.98119    310.14407   -838.37199    819.39187    118.83712       36.024 
165392000    282.74513     345.6414     442.1057   -824.82818    816.36575   -96.464301    35.895688 
165396000    297.65282    446.13146    306.56114   -831.74533     818.8755    139.57033    35.807387 
165400000    301.10698    209.98793    216.44635   -858.87099    830.35422   -6.4584178     35.64983 
165404000     271.7123    268.80152    262.73009   -871.58445    859.11299    6.0714342    35.835481 
165408000    277.59199    325.43905    369.18975   -891.01013    875.81218   -43.750696    35.893501 
165412000    280.03512    407.86184     474.2228   -899.26959    885.43295   -66.360953    35.954105 
165416000    282.31024    522.64554    392.59308   -905.72885    887.97922    130.05246    35.785584 
165420000    295.92207    254.40158    344.60234   -913.83011    889.44079   -90.200764    35.765936 
165424000    302.69473    345.53808    304.04183   -925.92382    897.82279    41.496251    35.960716 
165428000    275.63207    213.41559    328.70228   -911.22782    899.29082    -115.2867    36.031727 
165432000    274.90023    424.00344    373.98888   -907.03161    905.34347    50.014553    36.178765 
165436000    243.32807    228.00988    205.38864   -894.16625    910.34243    22.621239    36.121871 
165440000    283.74802    299.47779    302.52234   -913.89933    908.58823   -3.0445492    36.235395 
165444000    303.20709    410.79921    605.99246   -944.29097    908.51054   -195.19325    36.599888 
165448000     295.8853    426.49803    461.49503   -941.36024    910.53045   -34.997006    36.564158 
165452000     301.8198    192.19523    433.69231   -948.59836    929.91427   -241.49708    36.738726 
165456000    286.81026    301.74065    276.85495   -941.72556    931.36754    24.885696    36.805611 
165460000    270.96852    260.96299    349.88067   -944.42975    933.26072   -88.917683    36.633872 
165464000    279.79726    371.87083    426.13301   -934.53496    933.98508   -54.262183    36.579374 
165468000    272.83302    309.81036    220.60167   -944.59362    949.67681    89.208686    36.850978 
165472000    277.80199    313.68453    435.15104   -958.96606    951.38259    -121.4665     36.89269 
165476000    270.45757    420.37027    341.18282   -969.79509    974.45784    79.187443    37.040847 
165480000    268.09849    298.59578    222.18234   -995.14161    975.76727    76.413442    37.207176 
165484000    275.36774    511.46406    252.72372   -995.36527    996.75301    258.74034    37.298239 
165488000    275.84593    692.91475     164.2202   -1009.6216    1010.4666    528.69455    37.247508 
165492000    251.76369    344.44279    343.90171   -1008.1586     1010.877   0.54107613    37.331286 
165496000    296.48638    491.08915    340.45583   -1036.2014    1009.3386    150.63332     37.36312 
165500000    329.62374     453.7949    424.18911   -1039.7231    1000.2859    29.605785    37.249624 
165504000    283.81541    419.70195    430.72127   -1035.6308    1014.2231   -11.019316    37.260737 
165508000    300.33655    383.22317    444.59174   -1054.4866    1015.0847   -61.368574    37.420464 
165512000    291.41707    445.61387    257.96547   -1043.1792    1025.1328    187.64841    37.673074 
165516000    282.59733    427.32988    327.24855   -1044.9076    1028.2932    100.08133     37.79646 
165520000    261.65154    519.23213    377.76442   -1046.9502    1033.7136    141.46771    37.928496 
165524000    320.62709    362.28569    144.65827   -1052.6606     1024.866    217.62741    37.934362 
165528000    292.53764    372.10397    277.60222   -1061.9265    1027.3162     94.50175    38.038815 
165532000    296.90186    326.45714    267.63884   -1080.3333    1043.1872    58.818298    37.934173 
165536000    303.82207    311.95181    407.60825   -1087.0252    1048.9442   -95.656432    37.949965 
165540000    322.80355    514.50945    352.27487   -1098.2391    1056.9849    162.23457    37.990211 
165544000    302.80733    384.67813    403.48191   -1088.4023    1069.3782   -18.803776    37.849075 
165548000    287.73363    370.60863    326.82009   -1109.0766    1088.7793    43.788541    38.151835 
165552000    313.45645    329.40736    252.64344   -1110.6013    1093.6694    76.763923    38.102845 
165556000    292.13936    283.93395    425.93856   -1115.6142    1091.2599    -142.0046    38.203721 
165560000    281.79795    452.41667    501.34164   -1115.7409    1113.1435   -48.924974    37.997792 
165564000    292.76768    546.94307    319.89497   -1138.9019    1117.5226     227.0481    38.201522 
165568000    309.30679    246.64483     276.4746    -1161.408    1132.6437   -29.829777    38.134089 
165572000    314.29442     387.3033    204.67102   -1163.3383    1138.3413    182.63228    38.080128 
165576000    289.00677    223.37549    324.83807   -1152.5685    1155.2653   -101.46259    37.866743 
165580000    280.16734    458.70412    575.30738   -1164.1753    1159.8515   -116.60326    38.022557 
165584000    244.82419    331.02796    279.56629   -1147.2614    1166.3697    51.461669     38.08833 
165588000    281.64828    514.49169    307.92465   -1166.4556    1157.4074    206.56703    38.087645 
165592000    277.27229    379.98458     299.7763   -1167.3846    1172.3132    80.208275    38.107917 
165596000     267.7428    251.58949    565.90091   -1165.5071    1166.3964   -314.31142    38.080662 
165600000    271.33342    313.37853    301.71836   -1165.2071    1171.6807    11.660165     38.13054 
165604000    273.24446    222.25506    337.34349   -1183.6441    1177.7586   -115.08843    38.022996 
165608000    292.10909    191.77456    268.66654   -1202.5051    1181.1509   -76.891984    37.950728 
165612000    275.32681    483.27139      263.047   -1220.5678     1195.039    220.22439    38.029286 
165616000    287.89201    289.55933    467.89725   -1217.5624    1219.8232   -178.33792     38.07296 
165620000    291.01005    401.74328    390.78248   -1235.9875    1224.3419    10.960798    38.320986 
165624000    278.63496    294.79234    407.23531   -1245.3038    1237.7177   -112.44297     38.68677 
165628000     280.2552    304.48449    254.27208     -1243.86    1234.3553    50.212403    38.540811 
165632000    300.48713    438.00259     274.0792   -1262.2654    1226.3776    163.92339    38.493932 
165636000    291.96056    297.41654     268.9081        -1244    1226.5424    28.508436    38.487822 
165640000    263.41002    469.92927      426.529   -1256.1978    1248.5983    43.400271    38.445562 
165644000    260.33859    567.18813    322.88048   -1255.3282    1257.8215    244.30764    38.372255 
165648000    301.19405    468.66875    417.79618    -1269.767    1262.5167    50.872572    38.558534 
165652000    273.64556    448.46837    294.90191   -1285.7237    1281.7601    153.56646    38.661637 
165656000    239.74552    340.51793    198.03567   -1272.4274     1282.018    142.48227    38.683444 
165660000    303.96905    338.85543    548.09021   -1284.6761    1267.7685   -209.23478    38.639669 
165664000    288.31975    403.40594    394.03325   -1301.8381     1279.713    9.3726914    38.683166 
165668000    268.89468    415.09055    460.15485   -1293.8842      1300.49     -45.0643    38.687998 
165672000    298.50186    353.83968    317.69276    -1308.158    1281.9072    36.146922    38.636707 
165676000    273.14026    249.92733    291.50423   -1284.7018    1296.4142   -41.576897    38.593342 
165680000    288.60022    439.27503    228.62532   -1309.5082    1281.8263    210.64971    38.626345 
165684000    308.82203    332.55096    256.23263   -1315.6148    1286.3352    76.318333    38.731397 
165688000    299.22821    319.73479    216.33481   -1303.6992    1283.0843    103.39998    38.723235 
165692000    282.90163    220.57958    298.95283   -1290.8893    1282.4428    -78.37325    38.886145 
165696000     264.6221     241.8959    425.46327   -1292.3241    1301.0777   -183.56737    38.936328 
165700000    291.94498    352.88951    326.16618    -1323.408    1304.5982    26.723326    38.831302 
165704000    256.35184     208.5378    356.66408   -1312.3449    1324.9118   -148.12628    38.654255 
165708000    271.89923    347.98816    473.34436   -1305.0432     1328.466    -125.3562    38.659678 
165712000    261.09344    300.84305    415.73308   -1320.1203    1316.6193   -114.89003     38.66638 
165716000    253.48075    346.06585    361.56976   -1313.0352    1326.5055   -15.503913    38.822182 
165720000     282.2658    636.78661    189.76301   -1324.0158    1330.0754    447.02359    38.856535 
165724000    273.28467    398.06883    388.27783   -1324.5648    1329.1096    9.7909921    38.778153 
165728000    261.65171    460.85809    365.70015   -1323.1894    1324.8546    95.157941    38.876305 
165732000    255.60817    339.44917    310.47564   -1342.8051    1343.3252    28.973523     38.91514 
165736000    279.29445    321.91704    612.08885   -1345.0948    1343.9348   -290.17181    38.896031 
165740000    283.68929    343.55557    328.19257   -1350.9488    1337.2585    15.363006    38.724248 
165744000    287.74133     512.7152    208.45243   -1343.5077    1335.7239    304.26277    38.660739 
165748000    285.06028    390.72461    267.47856   -1330.3752     1337.486    123.24605    38.628103 
165752000    257.68557    381.23894    325.43226   -1348.3198    1354.8613    55.806681    38.708424 
165756000    278.49528    340.16523    324.92479   -1361.0608    1373.8958    15.240435    38.807676 
165760000    256.68372    537.40694    279.67249   -1357.1708    1368.6284    257.73445    38.768173 
165764000    263.15436    287.10695    474.67898   -1358.3005     1360.342   -187.57203    38.645989 
165768000    265.74932     279.6974    480.58549   -1379.6892    1363.8271   -200.88808    38.776577 
165772000      298.585     277.2779    380.30084   -1397.6152    1372.5172   -103.02294    38.794501 
165776000    268.29177     346.7777    277.51506   -1398.9368    1399.1622    69.262639    38.922769 
165780000    312.11701    314.36386    246.95325   -1402.8353    1395.4782    67.410616    38.861054 
165784000    308.07791    267.72812    366.27438   -1406.6028    1383.6577   -98.546264    38.950377 
165788000    319.17805    306.15878    250.84655   -1406.9221    1393.2341     55.31223    38.992234 
165792000    274.25861    382.40149    272.14098   -1401.9661    1414.9249    110.26051    39.027757 
165796000    278.26494    442.92712    225.82286   -1424.3794    1406.4855    217.10426    39.057683 
165800000    275.10461    495.74171    351.40489   -1434.4019     1424.454    144.33682    39.066202 
165804000    274.24625    349.78915    250.59506   -1434.4073    1427.9015    99.194093     39.18481 
165808000    270.97275     294.5137    269.69244   -1435.6016    1435.4142    24.821258    39.107509 
165812000    287.12709    357.95507    641.48215   -1461.7728    1444.1383   -283.52708    39.098322 
165816000    282.99633    334.10351    382.14781   -1466.5471    1448.6474   -48.044296    39.117002 
165820000    240.39291    311.12449    324.76299   -1473.3121     1486.597   -13.638501     38.85663 
165824000    266.80133    374.32619    350.81014    -1489.538    1492.1064    23.516051    38.844019 
165828000    303.20675    274.05951    459.74084   -1505.5029    1480.6127   -185.68133    38.787153 
165832000    266.70196    341.47164    524.70192    -1504.331    1495.7384   -183.23028    38.712294 
165836000    284.76688        525.1    533.24619   -1536.7645    1524.6639   -8.1461923     38.76068 
165840000    290.35849    372.39164    350.66403   -1533.5107     1536.633    21.727606    38.710918 
165844000     290.6543    452.18369    256.84477   -1545.2933    1557.9611    195.33892    38.691267 
165848000    248.82331    352.80664    338.21496   -1552.7484    1555.1492    14.591676    38.679748 
165852000    267.76152    452.31661    271.55245   -1545.4397    1569.5302    180.76415    38.590109 
165856000      277.457    574.03752    297.20693   -1552.3053    1560.7995    276.83059    38.644197 
165860000    263.64596     488.7201    247.21353   -1549.9804    1560.9642    241.50658    38.610987 
165864000    262.38031    380.51103    218.80728   -1568.5452    1569.2094    161.70375     38.57566 
165868000    294.66532    357.87479    523.61809   -1593.0235    1561.3168   -165.74329    38.538108 
165872000    306.45917    516.73728    285.76514   -1603.4559    1575.2154    230.97214    38.507094 
165876000     268.4109    433.48899     526.9874   -1595.0461     1586.339   -93.498413    38.418521 
165880000    274.60601    477.63969    297.74654   -1596.4784    1598.8882    179.89315    38.488808 
165884000    250.05172    311.79831    235.73526   -1584.2007    1599.9592    76.063056    38.476901 
165888000    279.97376    306.23385    184.32044   -1598.9932    1576.7687    121.91342    38.398418 
165892000    271.30987    433.74257    275.59558   -1572.2932    1578.6565    158.14699    38.396631 
165896000    287.75282    371.69835    224.01083   -1587.9585    1579.9186    147.68752    38.483177 
165900000    295.61222    427.80218    374.42447   -1596.2524    1568.2031    53.377706    38.424199 
165904000    293.68739    403.59944    210.78234   -1583.5422    1574.1051    192.81711    38.204992 
165908000    264.07844    540.76756    596.95395   -1572.0508     1577.744   -56.186391    38.098357 
165912000    275.63754    365.94724    264.66479    -1603.865    1586.3352    101.28244    37.979716 
165916000    282.39785    442.64807    318.46944   -1617.1989    1604.4911    124.17863    37.961275 
165920000    285.14889     287.2477    527.52739   -1624.5784    1622.2007   -240.27969    37.862955 
165924000    264.23715    321.91551    294.11956   -1626.5399    1625.9067    27.795948    37.954699 
165928000    279.83333    430.88289    388.26434   -1635.7732    1646.3733    42.618551    37.958807 
165932000    264.34144    346.06167    526.46838   -1647.5286    1646.0838   -180.40671    37.999484 
165936000    257.74946    450.39075    450.07981   -1643.3713    1658.5086   0.31094331    38.056687 
165940000     279.4604    212.38963    347.18396   -1660.5485     1661.346   -134.79434    38.023161 
165944000    271.10566    350.65999    299.54405    -1680.047    1681.8442    51.115937    37.975032 
165948000    310.82683    555.43067    439.30696   -1700.3142     1681.704    116.12371    37.928038 
165952000    274.66529    393.48153    316.17255   -1703.0314    1699.4883    77.308976    37.848625 
165956000    286.43405    393.10157    357.16879   -1724.8123    1717.9723    35.932777    37.782164 
165960000    257.05844      498.049    290.73334   -1717.6915    1730.8965    207.31566    37.618805 
165964000    270.84562    291.41837    550.56692   -1746.8586    1739.5374   -259.14855     37.60148 
165968000    290.36095    330.62324    334.54456   -1770.8168    1740.6957   -3.9213144    37.708479 
165972000    310.56373    464.81944    260.29791   -1768.5446    1741.5163    204.52153    37.783235 
165976000    293.12363    273.42665     321.6704   -1764.8408    1765.0153   -48.243756    37.805323 
165980000    285.26873     288.1705    234.93328   -1782.7448    1769.6987    53.237218    37.752622 
165984000    274.44471    311.71314    267.42793   -1770.3387    1767.7525    44.285209    37.769037 
165988000     287.9358    429.55692     446.9407   -1769.0554    1766.8188   -17.383772    37.850602 
165992000     275.4472    351.28531    308.20591   -1782.6787    1786.0167    43.079398    37.843127 
165996000    261.49747    578.55336    405.90752   -1794.0881    1785.4292    172.64584    37.811569 
166000000    265.16986    284.48107    272.27312   -1798.5045     1785.946    12.207958     38.00661 
166004000    283.03586    257.29341    371.54593   -1806.7261    1798.3611   -114.25252    38.080893 
166008000    286.71221    683.75872    228.29492   -1806.8607     1803.995     455.4638    38.133352 
166012000    288.77549    398.17546    224.25016   -1815.8883    1785.8818    173.92529    38.117061 
166016000    273.61572    285.42672    528.69419    -1803.253    1801.3379   -243.26747     37.93962 
166020000    276.32462    362.68356    381.24519   -1825.3402    1825.8631   -18.561636    37.923252 
166024000    282.03764    433.61473    248.68991   -1818.3321    1826.1946    184.92482    37.817204 
166028000    285.02609    387.45385    517.09331   -1824.1393    1832.4089   -129.63946    37.869409 
166032000    239.68557    221.46737     459.4112   -1841.8491     1850.391   -237.94383    37.905441 
166036000    279.98227    520.62942    337.92355   -1865.3431    1850.9285    182.70588    37.880414 
166040000    293.69299    373.41779    413.38738   -1871.1422    1853.4736   -39.969589     37.94583 
166044000    282.53007    388.68638    386.13453   -1867.4886    1864.6445    2.5518439    37.919299 
166048000    306.25731    405.22974    461.42862   -1887.4211    1849.7746   -56.198889    37.768744 
166052000    281.40953    317.33371     370.5519   -1866.2894     1861.579   -53.218188     37.63364 
166056000    267.04058    234.96981    377.96701   -1876.0759     1852.917    -142.9972    37.645656 
166060000    278.83908    304.21299    336.26301   -1897.3659    1865.6241   -32.050021    37.675922 
166064000    286.62974    273.07661    465.91971    -1890.858    1869.5255   -192.84311    37.744059 
166068000    262.15841    275.84873    198.99245   -1909.5483    1894.7621    76.856279    37.731504 
166072000    289.45714    349.78476    298.90288   -1908.4008    1892.7168    50.881872    37.624597 
166076000    286.03293    315.04645    384.14586    -1910.442    1907.6133    -69.09941     37.70532 
166080000    293.43201    413.42821    433.20323   -1923.4599       1919.1   -19.775015     37.61164 
166084000    253.77907     394.5151     226.8052   -1922.7619    1928.0764     167.7099    37.669931 
166088000    273.05051     509.3606    307.68228   -1949.3966    1928.7557    201.67832     37.75952 
166092000    298.43524    398.96533    635.13692   -1945.1709    1925.5139   -236.17159    37.773685 
166096000     262.9887    355.94341    414.91162   -1947.3949     1929.932   -58.968217    37.793114 
166100000    294.11025    421.62466    274.61169   -1964.8457    1949.7022    147.01297    37.867667 
166104000    271.87905    418.33817    244.81857   -1965.7501    1958.8499     173.5196     37.97158 
166108000    292.89954    291.70607    242.73724    -1975.332    1956.6833    48.968832    37.853371 
166112000     273.8062    374.49446    344.85589   -1973.1475    1973.0416    29.638566    37.845413 
166116000    278.69759    491.27186    320.65296   -1979.3476    1971.3749    170.61889    37.852226 
166120000    256.46252    531.66139    546.86941   -1970.1781    1998.2183   -15.208029    37.837453 
166124000    263.10846    463.43785    207.45971   -1994.4593    1999.6535    255.97815    37.531668 
166128000    282.45106    367.27177    198.88054    -1998.946    1990.5147    168.39123    37.531518 
166132000     277.7626    425.77612    247.32868   -1995.9425    1993.2721    178.44744    37.523273 
166136000    278.03236    341.58795     582.2241    -1992.402    1994.8672   -240.63616    37.705466 
166140000    271.45519    381.62824    212.22789   -2006.0723    2007.9358    169.40036    37.600026 
166144000    294.79679    445.84121    289.57801   -2016.9919    1990.2687     156.2632    37.535475 
166148000     281.8863    363.94686    278.97393   -2015.4679     1995.189    84.972936    37.566732 
166152000    279.29797    372.85073    335.39044   -2034.5252    2026.7992    37.460291     37.59725 
166156000    255.02196    225.91854    396.53179   -2031.9198    2032.6604   -170.61324    37.414838 
166160000    278.59267     392.3824     272.5394   -2048.0377    2047.6596      119.843    37.408779 
166164000    290.85914    278.49886    398.39309   -2048.4783    2038.8919   -119.89423    37.580763 
166168000    289.74901     502.3083    141.89188    -2054.312    2032.0708    360.41642    37.577213 
166172000    283.95483    374.55233    234.29009   -2057.8617    2052.7372    140.26224    37.571645 
166176000    300.62805    309.60966    223.57009   -2084.6789    2057.7096    86.039574    37.632957 
166180000    297.30395    446.70734    173.36059    -2107.033    2093.9491    273.34676    37.665077 
166184000    255.19296    339.98584    333.61798   -2118.4886    2112.7616    6.3678598    37.562245 
166188000    296.25888    315.02208    447.98013   -2128.8086    2118.1437   -132.95805    37.520858 
166192000    291.06738     473.1389    256.30451    -2132.474    2125.3411    216.83439    37.441923 
166196000    284.21525    556.56246    339.28765    -2134.381    2119.9258    217.27481    37.451288 
166200000    285.23505    207.86189     254.5041    -2140.965     2137.996   -46.642206     37.42886 
166204000    274.72558    680.17949    243.59053   -2133.3534    2152.0077    436.58896    37.437678 
166208000    304.48485    327.95947    369.86426   -2149.5299    2138.3538   -41.904787    37.650225 
166212000    281.41371    329.19042    428.52219   -2154.1821     2140.818   -99.331774    37.818607 
166216000    293.39058    481.71666    538.36525   -2159.4879    2155.6548   -56.648589    37.893314 
166220000    305.47787    257.28743    281.44259   -2164.8026    2148.5015   -24.155154    37.895736 
166224000    297.21087    313.12831     288.2631    -2172.299    2151.1107    24.865206    37.748582 
166228000    290.16168    192.31133    268.02988   -2174.8485    2173.6727   -75.718551    37.728155 
166232000    281.84015    317.19812    437.94369   -2187.2097    2176.3696   -120.74557    37.636492 
166236000    289.16319    309.35261     295.6249   -2190.6602    2180.1013    13.727704    37.580685 
166240000     266.1987     270.6963    266.76404   -2190.6011    2199.9515    3.9322626    37.629584 
166244000    289.21406     524.7727    251.29076   -2221.4324    2216.8378    273.48194    37.720846 
166248000    274.93312    226.87968    715.53448   -2228.5917    2210.9799    -488.6548    37.658162 
166252000    278.31728       492.12    365.46484   -2223.6765    2234.5477    126.65516    37.698509 
166256000    302.44561    306.12365    384.94423   -2256.4161     2231.445   -78.820587    37.762656 
166260000     290.9028    411.52236    263.91559   -2263.6983    2247.7567    147.60677     37.78401 
166264000     320.8011    373.35531    392.57025   -2281.0535    2249.4453   -19.214939    37.837882 
166268000    310.04287    367.03522    224.19391   -2290.7486    2261.7225    142.84131    37.882528 
166272000    286.29989    334.91382    413.99977   -2282.2098    2288.0591    -79.08595    37.876469 
166276000    294.03586    336.84769    358.40912   -2298.6561    2300.4054   -21.561434    37.798321 
166280000    291.03237    265.80913    451.15269   -2328.7057    2313.1961   -185.34356    37.747718 
166284000    285.35488    522.43345    255.87188    -2320.053    2308.4522    266.56157    37.834111 
166288000    265.10713    380.16551    424.42873     -2303.33    2324.0168   -44.263225    37.879929 
166292000    269.99883    539.38122    238.23562   -2306.3552    2333.5734    301.14561    37.995008 
166296000    281.52163    373.99921    176.26165   -2331.4203    2321.4364    197.73756    37.970412 
166300000    297.26599    430.59014    562.73207   -2352.1946    2334.1346   -132.14192    37.944091 
166304000    279.03231    288.49937    133.98164   -2357.2363    2361.7542    154.51772    37.995159 
166308000    260.66904    378.56276    380.15847   -2350.7883     2364.242   -1.5957177    38.144892 
166312000    272.54959     607.6334    377.23975    -2372.822    2368.4636    230.39365    38.086553 
166316000    254.10989    416.27442    167.70374   -2377.9685    2380.0062    248.57067    38.085224 
166320000    291.52389    334.66367    434.66924   -2385.7196    2367.4632   -100.00558    38.105086 
166324000    303.57909    269.81549    451.91783   -2399.9597    2383.2427   -182.10234    38.069577 
166328000    292.71588    377.25133    600.43365   -2401.5751    2387.5733   -223.18232    38.206827 
166332000     265.1345    213.01201    250.58007   -2405.1287    2412.6548   -37.568062    38.237927 
166336000    244.60693    275.62155    394.03236   -2413.3965    2428.0204   -118.41081    38.186676 
166340000    277.07611    341.15766    387.73376   -2431.4025    2440.1468   -46.576099    38.223896 
166344000    276.05867    345.69135    287.22118   -2445.5441    2446.5123    58.470173    38.284057 
166348000    280.46386    372.23406     216.3742    -2450.033    2454.4424    155.85985    38.319817 
166352000    276.49926    503.03814    315.66846   -2468.3479    2459.0295    187.36968    38.454798 
166356000    301.27806    498.45296     350.9365   -2467.3743    2452.6605    147.51646     38.49795 
166360000    285.14817    398.82877    404.75998   -2463.6041    2442.8943   -5.9312103    38.567761 
166364000    275.65702    277.70338    251.61229    -2448.738    2462.4774    26.091086    38.519959 
166368000    273.85604    242.79485    214.10481    -2460.117    2456.3561    28.690038    38.637156 
166372000    294.17594    555.58778    562.73004   -2475.6759    2456.6577   -7.1422536    38.660429 
166376000    287.33627     345.6561    538.51316   -2477.5388    2484.0015   -192.85706    38.624311 
166380000    254.36376    217.38821    219.21036    -2480.437    2487.0288   -1.8221528    38.651577 
166384000    279.42945     237.1011    290.53796   -2482.5753    2471.5451   -53.436859     38.70167 
166388000     292.4798    359.30927    603.11085   -2495.9972    2472.7741   -243.80158    38.678459 
166392000    281.42289    479.44188     625.8145   -2497.8287    2476.6746   -146.37262    38.778594 
166396000     262.3759    281.18219    240.88319     -2482.18    2496.6434    40.299005    38.702536 
166400000    289.36271    640.10094    279.82835   -2502.0051     2502.517    360.27259    38.749134 
166404000    304.33732    391.01947    295.10691   -2504.1068    2501.0236    95.912562     38.67082 
166408000     276.1645    422.75798    400.60317   -2502.4583    2494.9941    22.154818     38.62944 
166412000     275.2467    301.34014    229.72401   -2515.0679    2501.5097    71.616127    38.678065 
166416000    297.97291    300.49123    397.71442    -2516.617    2514.2368    -97.22319    38.599344 
166420000    280.13726    605.10832    322.90877   -2541.3593    2531.7313    282.19955     38.61052 
166424000    298.96643    417.40387     443.2428   -2550.1337    2530.1157   -25.838939    38.631502 
166428000    269.39608    428.82429    303.82886     -2551.32    2547.9346    124.99543    38.540081 
166432000    254.08752    207.65027    194.71547   -2527.9319    2555.4539    12.934802    38.642906 
166436000    246.70712    270.98584    245.45191   -2526.3495    2551.6851    25.533933    38.656266 
166440000    279.66594    404.33725    555.34935   -2554.4514    2534.2344   -151.01211    38.584568 
166444000    315.84467    444.95468    338.52263   -2552.8127    2540.2526    106.43205     38.63616 
166448000    265.25008    366.70321    234.34768   -2539.3988    2541.9448    132.35553    38.682823 
166452000    271.78414     359.5027    438.94072   -2535.4528    2550.8154   -79.438021    38.587852 
166456000    299.62925    534.26495    378.69729   -2542.1692    2534.7517    155.56766    38.652702 
166460000    306.25996    354.07079    470.53442   -2554.8057    2540.5049   -116.46363    38.657703 
166464000    261.04412    404.10537    231.93229   -2562.7869    2563.1113    172.17308    38.607182 
166468000    300.08082    184.14665    271.76404   -2573.5342    2557.8072   -87.617392    38.641456 
166472000    291.63746    453.89494      454.017    -2579.675    2572.7473  -0.12205859     38.64456 
166476000    288.57144    411.09366    303.93669   -2584.7894    2571.8077    107.15697    38.574411 
166480000    275.84272    481.67346    198.02599   -2595.6319    2586.0907    283.64747    38.610374 
166484000    303.19138    213.17162    242.56448   -2602.0786    2585.9744   -29.392867    38.581647 
166488000    277.81151    351.94075    177.80449   -2618.6066    2608.2338    174.13627    38.547092 
166492000    267.32416    365.80964    275.78749   -2622.1071    2612.2486    90.022156    38.565779 
166496000    291.22981     282.5717    286.98909   -2640.3842    2610.0356   -4.4173904    38.514358 
166500000    312.49435    282.84881    353.16071   -2647.2262    2633.8234   -70.311901    38.509762 
166504000    302.55103    242.11875    210.83966   -2658.5079    2648.2226    31.279091    38.496034 
166508000    291.63387    322.31118    572.80833   -2644.9398    2641.1814   -250.49715    38.587317 
166512000    294.84647    387.82038     211.6126   -2679.4051    2659.3988    176.20778    38.525544 
166516000    297.19896    355.31989    484.76946   -2683.3971    2662.6631   -129.44956    38.562013 
166520000    283.56234    365.13521    349.96569   -2678.1543    2665.4797    15.169518    38.594163 
166524000    299.93523    286.83446    373.73054    -2701.777    2671.4165   -86.896082    38.592918 
166528000     280.6985    392.09242    185.91329   -2682.0739    2685.6441    206.17913    38.640601 
166532000     259.1652    117.15112    332.47307   -2680.2283    2699.3155   -215.32195    38.674525 
166536000    281.47005    491.82622    420.98412   -2711.9486    2699.3297    70.842091    38.711638 
166540000    270.81117    265.61834    346.01071   -2705.0084    2717.0206   -80.392373    38.727096 
166544000    286.98802    252.47471    204.73059   -2731.3077    2718.4475    47.744112     38.88046 
166548000    269.90771     296.7362    400.66185    -2725.986    2730.8607   -103.92566    38.913668 
166552000    268.09884     290.0228    322.00584   -2727.4071     2748.178   -31.983047    38.918134 
166556000     255.6145    380.14549    335.12198   -2734.1717    2753.9084    45.023508    38.965806 
166560000    281.91899     388.7972    268.68114    -2739.207    2755.8022    120.11606    39.020031 
166564000    256.74375    389.07823    298.84482   -2748.4524    2767.7523    90.233407    39.036631 
166568000    280.95172    683.06362    332.13051   -2757.4631    2756.3482    350.93311    39.027854 
166572000     280.8006    412.86811    318.41456   -2772.8923    2765.4338    94.453548    39.115354 
166576000    273.15617    278.00044    540.07252   -2771.7476    2767.6228   -262.07208    39.098697 
166580000    262.46782    311.05589    276.24679   -2773.3174     2783.679    34.809098    39.067224 
166584000    287.95026    228.56357    324.60307   -2776.0183    2764.2886   -96.039499    39.039028 
166588000    262.96682     144.3424    172.63873   -2778.9699    2776.0959   -28.296334    39.031283 
166592000    293.71759    312.94249    336.27666   -2798.6868      2789.99   -23.334161    39.077206 
166596000    271.38666    290.58926    189.38894   -2805.9554    2806.6268    101.20032    38.968703 
166600000    281.12034    395.87971    559.59784   -2813.5639    2805.2879   -163.71813    38.908894 
166604000    280.57173    246.65572    196.05678   -2830.8135    2825.3873    50.598939    38.947086 
166608000     252.1782    277.65116    272.98679   -2838.0155    2851.3484    4.6643706    38.988763 
166612000    252.27155    307.91145    353.29721   -2841.7456    2868.4385   -45.385758    38.948084 
166616000    268.69927    577.23509    317.05509   -2855.0553    2865.2314       260.18    38.968244 
166620000    296.61416    423.28011    456.56795   -2863.5251    2847.2879   -33.287842    39.136304 
166624000    289.46695    329.81528    315.75567   -2864.7584    2864.9366    14.059614    39.096691 
166628000    313.15788    393.72842    406.61743   -2872.6158    2853.1729    -12.88901    39.053106 
166632000    260.24097    303.28094    263.76553    -2865.808    2858.2755    39.515415    39.000585 
166636000    309.19124    378.98727     556.5842   -2867.9856    2854.0224   -177.59692    38.936859 
166640000     317.2302    478.37168    362.59847   -2898.4975    2864.7848    115.77321    38.961739 
166644000    280.38267    500.46435    404.11476   -2896.3253      2883.19    96.349594    38.926566 
166648000     285.6193    249.14962    616.76076   -2884.5029    2868.5556   -367.61114     38.94788 
166652000     312.9519    483.88915    416.46675   -2891.3098    2875.4399    67.422397     38.93002 
166656000    270.84769    323.89826    235.87028   -2883.2482    2880.3557    88.027976    38.908411 
166660000     291.6474    307.07189    421.54473   -2881.7517    2867.9682   -114.47284    38.936364 
166664000    303.69133      436.412    187.68852    -2912.591    2893.5418    248.72348    38.906186 
166668000    302.81955    333.75831    525.58339   -2903.7115    2880.1948   -191.82508    38.967134 
166672000    263.70894    253.29876    412.71039   -2884.0434    2901.5157   -159.41164    38.925455 
166676000    287.32456    297.99228    262.51593   -2908.2144    2895.8272    35.476356    38.869999 
166680000     284.0288    265.60712    259.44354   -2906.6657    2896.0976     6.163572    38.794993 
166684000    277.68178    312.18736    162.51041   -2898.5988    2897.9147    149.67695      38.7346 
166688000    275.67298    334.64657    385.45166   -2910.7758    2915.7342   -50.805086    38.668033 
166692000    307.13934    422.39872    303.66977   -2937.7506    2913.8542    118.72895    38.756964 
166696000    307.07433    347.63416     445.3233    -2931.293     2917.027   -97.689135    38.635274 
166700000    278.22839    569.85446     346.7976   -2939.0186    2934.3356    223.05686    38.716212 
166704000    287.91502    475.21716    280.23857   -2951.7989    2937.3389    194.97859    38.782014 
166708000    318.00672    644.44122    366.66972   -2975.4872    2944.7019     277.7715    38.667684 
166712000    298.55513    312.16831    411.60577    -2981.851    2956.0291   -99.437465    38.589461 
166716000    262.29971    424.86627    236.00879   -2982.0638     2985.941    188.85748    38.609789 
166720000     266.9954    391.91186    172.25745   -2995.2815    2998.1982    219.65441    38.670336 
166724000    305.58959    251.42086    595.65623   -3018.5183    3000.7117   -344.23537    38.585915 
166728000    345.07998    337.61164    366.43733   -3042.6933    3012.3135   -28.825696     38.53968 
166732000    301.10298    397.86675    481.09219   -3042.6632    3014.1943   -83.225447    38.465648 
166736000    275.63867    503.92625    254.87795   -3042.8762    3037.4808     249.0483    38.386305 
166740000    310.71073    324.25308    169.31003   -3056.5468    3038.5043    154.94306    38.330775 
166744000    290.99279    245.66839    303.56004   -3052.9734    3046.4742   -57.891651    38.280092 
166748000    287.86627    344.52636    358.91714   -3069.9251    3045.0544   -14.390787    38.330155 
166752000    267.30439    529.96411    542.70081   -3060.1861    3081.9904   -12.736701    38.307498 
166756000      257.444    414.95595    196.90757   -3083.8232    3089.8797    218.04838    38.363571 
166760000     315.3068    706.13596    369.70844    -3098.472    3089.0994    336.42752    38.465387 
166764000    282.61634    276.94429    235.88909   -3100.8099    3101.1525    41.055208    38.470653 
166768000    283.33378    293.70993    104.12154   -3106.1188    3110.8449    189.58839    38.399504 
166772000    283.55361    380.18573    202.80643   -3119.9263    3130.9061     177.3793    38.463094 
166776000     255.0553    458.64892    177.81526   -3127.2601    3141.8131    280.83367    38.462974 
166780000    274.55768    305.39117     337.4123   -3119.7025    3136.3415   -32.021128    38.401429 
166784000     269.8269    334.83282    517.23931   -3138.9663    3135.9517   -182.40649    38.413192 
166788000     267.3328    532.23994    254.19451   -3144.9073    3143.2065    278.04543    38.383252 
166792000    278.96769    383.05972    357.66672   -3150.7755    3150.2612    25.393002    38.336453 
166796000    280.78139    423.98815    305.50401   -3158.4021    3156.3843    118.48414    38.353952 
166800000     276.1368    362.94633    462.50057   -3166.1282     3176.047   -99.554241    38.343785 
166804000    289.14174    317.72108    322.64077   -3184.3871    3185.7099   -4.9196928    38.377236 
166808000    313.20963    597.11311    302.52654   -3203.4908     3171.451    294.58658    38.342164 
166812000    294.81615    554.10082    299.86084    -3198.782    3181.4685    254.23999    38.337939 
166816000    279.78508    370.16467    244.47226   -3170.6989    3182.7964    125.69241    38.321828 
166820000    304.25346    310.95787    327.43272   -3201.8605    3184.7997   -16.474847    38.287968 
166824000    289.35684    211.35556    394.20362   -3204.3472    3193.7579   -182.84806    38.299276 
166828000    300.46835    167.04838    378.73727   -3207.2325     3192.104   -211.68889    38.199412 
166832000    289.89509    524.37883    556.91789   -3195.8736    3193.9227   -32.539053    38.224843 
166836000    285.02514    283.25407    565.18179    -3198.177    3188.0429   -281.92772    38.205517 
166840000    293.74233    458.89088    232.52644    -3217.033    3212.6641    226.36444     38.25915 
166844000    290.97158    460.80518    296.98341   -3235.4028     3226.783    163.82177    38.185163 
166848000     288.6187    341.91522    362.67641   -3251.6945    3240.0824   -20.761187     38.21016 
166852000    303.01743    211.99924    267.00092   -3245.1264    3251.7005   -55.001687    38.140979 
166856000    284.22597    333.97784     583.3102   -3262.7201    3255.1047   -249.33236    38.181391 
166860000    273.85466    246.82494    180.24334   -3263.0078    3264.1937    66.581607     38.27832 
166864000    273.85887    352.44351    569.54541    -3262.887    3258.2012   -217.10191    38.283766 
166868000    271.88919    263.28789    398.51113   -3273.9832    3281.5351   -135.22324    38.379995 
166872000    261.77965    449.75037    337.48386   -3267.6213    3279.8687     112.2665    38.414304 
166876000    287.40899    255.02269    271.59959   -3289.1183    3285.7445   -16.576903    38.369935 
166880000    250.86854    206.80042    308.91393   -3275.1785    3291.3329   -102.11351    38.324858 
166884000    277.50312    458.94959    134.17091   -3298.8298    3308.6475    324.77869    38.330279 
166888000     264.7423    571.29164     346.7446   -3310.6629    3333.0578    224.54705    38.338708 
166892000    285.38028    324.05466    673.59042   -3310.7519    3318.7293   -349.53576    38.277036 
166896000    260.01557    143.00372    143.04781   -3313.4976    3335.4521 -0.044084661    38.267142 
166900000    288.26743    287.10812    398.69332   -3321.1906    3328.2513    -111.5852     38.16734 
166904000    289.63441    432.80646    290.79751   -3340.9179    3330.5702    142.00895    38.116355 
166908000    257.20646     344.2447    367.52318   -3329.3131    3351.8212   -23.278477    38.155585 
166912000    272.49931    271.67492    185.77332   -3351.6041    3353.0547    85.901599    38.146125 
166916000    306.31985    441.88448    346.98285   -3365.5608    3340.7017    94.901631    38.158235 
166920000    241.49173    452.63713    309.59984   -3352.5529    3377.9974    143.03729    38.140813 
166924000    283.63036    216.41208    294.41074   -3361.0645    3363.2945   -77.998663    38.140068 
166928000    254.24177    383.30122    377.54748   -3362.5551     3371.151     5.753741    38.119987 
166932000    294.51568    374.69169    380.04435    -3381.663    3378.4784   -5.3526636    38.187737 
166936000    248.67555    531.82282    298.65116   -3372.1793    3394.5428    233.17167    38.152652 
166940000    275.63248    444.93859     270.4337   -3380.7004     3385.685     174.5049    38.099573 
166944000    289.29773    292.07864    539.23305   -3384.6238    3395.1557   -247.15441    38.080597 
166948000    262.24715    276.00482    199.38973   -3387.8368    3398.5643    76.615094    38.029438 
166952000    287.90438    405.77318    485.62136   -3393.0895    3395.4399   -79.848181    37.974882 
166956000    268.78834    275.40971    367.14654   -3398.2707    3398.6366   -91.736832    38.002812 
166960000    301.26155    272.71921    560.57015   -3411.7444    3405.3139   -287.85094    37.946741 
166964000    266.58983    632.79486    353.26948   -3411.4856    3418.7362    279.52538    37.959453 
166968000    278.74057    275.30486    328.85883   -3422.2682    3425.9526   -53.553962    37.960392 
166972000    280.89493    500.02349    201.44464   -3440.9909    3439.9438    298.57885    37.922516 
166976000     245.9472    240.96724    181.01986   -3446.7214      3458.05    59.947383    37.898089 
166980000    270.90442    361.77397     329.6351   -3446.0782    3448.4153    32.138869    37.925097 
166984000    279.24797    393.85997    354.68598    -3454.607    3444.6103     39.17399    37.902153 
166988000    280.05073     320.1377    300.31863     -3462.22    3448.0817    19.819073    37.902312 
166992000    293.43856    303.73117     148.1535   -3486.6135    3468.3415    155.57767    37.810236 
166996000     284.1605    443.96236    384.34796   -3484.4256    3468.7541    59.614408    37.845619 
167000000    302.75767    412.82474    348.72309    -3510.043    3463.5094    64.101648    37.884836 
[...]
196100000    309.04823    381.55744    431.17157   -54319.191    54307.081    -49.61413    38.777198 
196104000    297.24382    367.66102     192.1613   -54331.473     54324.84    175.49973    38.782224 
196108000    316.94411    387.61285    302.75444   -54350.557    54331.309    84.858411     38.77869 
196112000    263.94408    436.08911    491.87299   -54332.753    54335.557   -55.783877    38.776975 
196116000    286.60471    708.00293    248.30315   -54350.183    54359.028    459.69978    38.779222 
196120000    269.19223    285.87459    324.86497   -54338.597    54370.602   -38.990385    38.769641 
196124000    250.12762    278.79732    384.21492   -54342.976    54387.916   -105.41759    38.767193 
196128000    255.21434    344.71182    307.61816   -54338.738    54383.713    37.093661    38.763349 
196132000    274.54704    500.89549    393.97674   -54351.938     54365.63    106.91876    38.761925 
196136000    275.60631    434.08712    290.28846     -54365.7    54368.828    143.79866    38.762335 
196140000    272.03352    314.74631    464.18338   -54358.799    54384.719   -149.43707    38.768149 
196144000    269.04103    359.05088    326.07342   -54374.609    54390.266    32.977463    38.766609 
196148000    261.43634    183.70285    372.82001   -54372.179    54400.797   -189.11716    38.764781 
196152000    268.34125    533.89636    485.33142   -54381.617    54407.311    48.564934    38.764457 
196156000    261.99452    466.05373    347.05182   -54386.787    54400.361    119.00191    38.763614 
196160000    272.56056    247.57859    333.73578    -54400.66    54415.825   -86.157187    38.757558 
196164000     280.8833    371.38292    157.69426   -54401.779    54420.522    213.68866    38.764659 
196168000    259.16409    224.95629    236.52327   -54394.017    54418.785   -11.566978     38.76469 
196172000    278.54134    322.02843     386.3295   -54419.154    54404.958   -64.301073     38.76103 
196176000    285.87594    330.82113    454.08561   -54390.637    54401.748   -123.26448    38.756478 
196180000    304.81614    304.14856    356.67461   -54409.452    54408.053   -52.526044    38.759537 
196184000    289.53007    279.07903    419.89882   -54414.762    54430.103   -140.81978    38.758138 
196188000     286.8844    421.73591    419.79768   -54418.127    54436.842    1.9382338     38.76639 
196192000    293.77787    332.74799    386.54977   -54427.534     54447.06   -53.801783    38.763893 
196196000    268.99004    261.55609    402.27283   -54416.822    54444.704   -140.71674    38.760731 
196200000    299.99161    394.49788    538.38071   -54439.714    54445.627   -143.88283    38.759647 
196204000     248.2607    455.04786    280.35664   -54440.263    54470.076    174.69122     38.75931 
196208000    257.69128    331.91041    209.05258   -54447.047    54465.987    122.85783    38.759016 
196212000     282.7876    779.00926    584.09783   -54454.865    54465.326    194.91143     38.76375 
196216000    307.42077    333.80356    330.46777   -54473.976    54467.051    3.3357948    38.770345 
196220000    300.50167    330.37105    214.92744    -54479.89    54490.402    115.44361    38.769099 
196224000    283.76954    546.23742    206.10708   -54498.192    54506.191    340.13034     38.76856 
196228000    272.11788    391.76269    218.61857   -54497.977    54524.813    173.14411     38.77262 
196232000    276.75608    327.58652       431.29   -54532.961    54527.573   -103.70347    38.771762 
196236000    303.79419    550.92768    341.62612   -54536.691    54530.075    209.30156    38.768469 
196240000    298.51394    656.02181    352.28638    -54545.92    54541.849    303.73543    38.769899 
196244000    290.95443    399.68424    412.99427   -54542.998    54538.231   -13.310032    38.767083 
196248000    297.98118    226.78992    204.39936   -54558.256    54535.772    22.390569    38.760857 
196252000    301.03213     316.9258    286.67686   -54562.671    54556.636    30.248939    38.756217 
196256000    266.82759    175.96348    393.93343   -54564.841    54577.683   -217.96996    38.750378 
196260000     262.8218    453.01311     206.3703   -54575.083     54595.74    246.64282    38.754249 
196264000    259.74041    302.85841    265.24439   -54589.521    54602.794    37.614024    38.752303 
196268000    268.15557     406.7745    395.63337   -54584.553     54611.03    11.141124    38.753392 
196272000    281.20408    386.88207    228.88684   -54582.818    54608.225    157.99523     38.75173 
196276000    269.90351    252.98566    366.61578    -54596.82    54604.575   -113.63012    38.750461 
196280000    314.50526    398.57002    487.79417   -54621.691    54620.446   -89.224149    38.748411 
196284000    269.14295    377.11974    544.72612   -54605.124    54626.649   -167.60638    38.747691 
196288000    247.26068    430.63297    299.62291   -54614.229    54642.114    131.01006    38.742342 
196292000     257.3023     509.8484    207.60858   -54627.073    54642.239    302.23982    38.748402 
196296000     270.5171    347.28067    352.43091    -54629.81    54648.341   -5.1502416    38.749258 
196300000    272.25194    290.74513    689.29425   -54642.978    54646.142   -398.54912    38.742098 
196304000    292.87873    621.41024    344.57326   -54659.919    54655.336    276.83699    38.741872 
196308000    289.15557    397.42909    542.56255   -54651.746    54661.226   -145.13346    38.739175 
196312000    296.60813    533.61908    244.73813   -54648.833    54658.219    288.88095    38.739966 
196316000    283.76129    468.79354    450.58774   -54650.981    54670.046    18.205796    38.740878 
196320000    314.51199    234.28236    251.32691   -54674.973    54671.134   -17.044544      38.7406 
196324000     295.2914    456.12541    473.58449   -54670.153    54685.328   -17.459082    38.740223 
196328000    257.91079    437.07547    313.28831   -54666.807    54678.106    123.78716    38.736555 
196332000    263.93601    294.57791    254.28114   -54675.834    54692.608    40.296774    38.734287 
196336000    275.01373     355.8465    255.57212   -54690.848    54704.079    100.27438    38.734366 
196340000     305.9361    466.53915    375.91547   -54717.376    54712.563    90.623683    38.729574 
196344000    287.56966    521.18585    421.16524   -54724.371    54728.637    100.02062    38.732077 
196348000    295.94785    336.68398    607.61248   -54722.692    54720.843    -270.9285    38.730631 
196352000    274.91402    357.21625    351.34674   -54719.798    54728.135    5.8695138    38.736929 
196356000     259.5311    204.63178    503.70801   -54696.749    54729.527   -299.07623     38.73702 
196360000    275.93361    642.75996    402.73332   -54704.074    54725.614    240.02664    38.738838 
196364000    270.70579     541.9802    321.25381    -54714.42    54737.918    220.72639    38.743659 
196368000    271.47267    235.39922    352.50757   -54715.692    54751.195   -117.10835    38.748073 
196372000    262.44525    323.29322    189.97438   -54729.319    54745.762    133.31884     38.75047 
196376000    293.15278    630.54729    550.07551   -54724.385    54736.173    80.471786    38.750332 
196380000    266.15441    401.15675     292.3836   -54736.803    54751.986    108.77315    38.755297 
196384000    270.12192    408.03832    270.05124   -54743.731    54764.118    137.98707    38.752812 
196388000    271.51735    408.27899    266.35072   -54757.826    54781.361    141.92828    38.756846 
196392000    284.40507    732.71638    577.68212   -54761.754    54788.752    155.03426    38.758726 
196396000    271.01271    311.39551    460.87089   -54783.986    54798.097   -149.47538    38.764042 
196400000    274.61704    306.83799    336.34847   -54783.243    54798.202   -29.510481    38.768077 
196404000    271.08737    256.55693    388.93728   -54783.729    54793.699   -132.38035    38.764898 
196408000    310.52579    248.19222    588.75115   -54810.149    54789.439   -340.55892    38.772146 
196412000    307.08938    540.95334    282.98698   -54835.415    54825.542    257.96636    38.776492 
196416000    275.06331    236.36275    341.51558   -54819.501    54849.097   -105.15283    38.776432 
196420000    283.08259    266.35389    281.82886    -54844.38    54842.643   -15.474968     38.78407 
196424000    282.68832    412.05812    401.43001   -54854.234    54863.196    10.628112    38.783354 
196428000    275.25177    303.02707    535.89634   -54850.717    54861.418   -232.86927    38.781056 
196432000    276.97215    493.40817      601.153   -54872.911    54878.785   -107.74483    38.776589 
196436000     290.8824    536.31776    258.89944   -54866.227     54874.16    277.41832    38.773331 
196440000    299.04917    648.71535     325.4721   -54887.906    54880.855    323.24325    38.774481 
196444000     286.7267     501.3121    415.97809   -54885.037    54886.302    85.334005     38.77327 
196448000    272.57801    277.55252    180.39968   -54902.334    54913.413    97.152839    38.768593 
196452000    294.50799     566.1451    342.86601   -54920.151    54906.489    223.27909    38.770014 
196456000    244.24769    215.68872    277.54109   -54903.313    54921.782   -61.852369    38.770047 
196460000    284.10186    341.62335     181.5191   -54916.052    54919.876    160.10425    38.766999 
196464000    268.28197    313.44582    379.83775   -54919.739    54936.605   -66.391921    38.763819 
196468000    281.73295    265.31796    371.76151   -54932.569    54935.594   -106.44354    38.768359 
196472000    279.44589     386.1272    355.78447   -54939.518    54952.428    30.342727    38.770382 
196476000    264.30387    456.51395     299.1913   -54941.838    54950.649    157.32265    38.766591 
196480000    267.57931    352.55956    194.84804   -54945.055    54962.726    157.71152    38.769274 
196484000    261.71752     382.0343    216.25217   -54943.532    54971.852    165.78213    38.761847 
196488000    294.99447    301.41704    539.72371   -54953.245    54967.314   -238.30667    38.762703 
196492000    287.31855    520.48889    244.69718   -54957.569    54955.381    275.79171    38.763441 
196496000    296.71846    630.25313    349.54771    -54956.98    54955.279    280.70542    38.764019 
196500000    270.13391    370.68342     317.3006   -54959.665    54971.598    53.382826    38.761895 
196504000    289.86587    333.42362    396.89847   -54974.556     54989.15   -63.474857    38.756589 
196508000    265.76599    286.74957    256.45116   -54973.447    55003.572    30.298405     38.75547 
196512000    276.15377    313.38229    391.07643   -54992.243    55019.184    -77.69414     38.75454 
196516000    274.85082    271.26689    288.90347   -55011.706    55027.671   -17.636574     38.74913 
196520000    282.62439     601.2121    493.09081   -55020.963    55022.832    108.12129    38.750475 
196524000    320.78763    341.10307    358.50342   -55025.863    55023.059   -17.400352    38.748825 
196528000    268.13815    309.30258    304.24555   -55020.799    55039.344    5.0570221    38.750596 
196532000    313.67753     661.1513    396.67623   -55075.502    55040.382    264.47507     38.75427 
196536000    320.10433    376.70861    470.27307   -55070.075    55048.398   -93.564466     38.75049 
196540000     311.4976    435.95905    664.52284   -55063.156    55053.238   -228.56379    38.762419 
196544000    318.86221    448.73593     394.2709   -55071.814    55052.538    54.465023    38.760405 
196548000    298.34344     347.8533    348.80943   -55053.594     55039.28  -0.95612453    38.757283 
196552000    268.26057      310.199    463.46879    -55055.09     55063.59   -153.26978    38.756491 
196556000    275.97467    305.56951    269.33362   -55062.321    55074.128    36.235884    38.756163 
196560000    284.62363    285.44964    590.80454   -55063.908    55079.285    -305.3549    38.756012 
196564000    298.04568    420.78721    384.35745   -55068.054    55084.525    36.429763    38.751889 
196568000    285.98423    406.84529    215.16471   -55074.438    55102.168    191.68058     38.75312 
196572000    291.01321    335.18445     399.0888   -55087.557     55110.21   -63.904352    38.754401 
196576000    265.54868    281.02238    377.76573   -55098.476    55112.067   -96.743352    38.756843 
196580000    294.13514    276.65277     440.4229   -55109.212     55115.69   -163.77013     38.76398 
196584000    271.32933    344.77328    466.90192   -55105.707    55127.616   -122.12864    38.758704 
196588000    263.86012    397.47347    244.49058   -55120.835    55144.952    152.98289    38.767802 
196592000    262.30461    181.10978    411.05469   -55137.679    55147.715   -229.94491    38.767093 
196596000    272.70344    276.53967    458.84446   -55141.607    55147.505   -182.30479    38.767816 
196600000    274.61032    274.81706    240.79675   -55140.635    55147.483    34.020309    38.771212 
196604000    270.81915    435.02339    292.85124   -55156.523    55148.982    142.17215    38.775642 
196608000    246.60506    330.43422    391.54685   -55146.749    55182.506   -61.112632    38.779403 
196612000    293.49138    222.07186    171.15714   -55174.977    55192.123    50.914724    38.776918 
196616000    283.91246      556.793    223.54699    -55184.98    55194.174    333.24602    38.777424 
196620000     283.7334    375.50895    312.08609   -55183.701    55194.771    63.422865    38.777723 
196624000    294.47298    319.77507    351.67745   -55203.858    55203.399   -31.902376    38.775898 
196628000    310.96473    291.60512    411.63942   -55213.258    55212.607    -120.0343    38.778265 
196632000     283.6274    458.23573     253.9313   -55223.714    55232.859    204.30444    38.775708 
196636000    284.97296    258.46926    405.50314   -55236.575    55250.392   -147.03388    38.776106 
196640000    320.19608    236.02813    295.62926   -55270.043    55249.957   -59.601135    38.777528 
196644000    270.68123    528.88526    230.66521   -55289.452    55291.408    298.22005    38.775784 
196648000    288.22657    334.04711    417.76513   -55285.293    55298.539   -83.718021    38.774905 
196652000    283.68126    414.62959    421.23628   -55301.857    55313.575   -6.6066875    38.783554 
196656000      283.677    367.44722    471.93906   -55300.653    55301.344   -104.49183     38.77799 
196660000    299.05705    324.34261     207.4869   -55301.241    55317.146    116.85571     38.77581 
196664000    269.39226    320.88192    226.07981   -55317.527    55324.955    94.802115    38.778451 
196668000    282.36498    239.97064    176.67348   -55314.102    55324.734    63.297152    38.775365 
196672000    292.01092    413.10904    299.59201   -55322.648    55323.534    113.51704    38.775639 
196676000    275.44255    314.65149    223.65343    -55325.23    55328.453    90.998068    38.770376 
196680000    275.83132    376.97557    160.19257   -55310.696    55318.067      216.783    38.772813 
196684000    280.28182    439.91914     317.3638   -55298.857    55315.911    122.55534    38.767181 
196688000    239.57675    418.71558    374.34024   -55298.969    55330.461     44.37534    38.770071 
196692000    281.85956     396.6215    834.88834   -55318.077    55334.908   -438.26684    38.772224 
196696000    251.48491    368.39118    284.23481   -55315.185    55362.501    84.156365    38.772193 
196700000     264.7974    346.76301    463.63617   -55337.506     55357.88   -116.87316    38.765616 
196704000    297.69536    291.22277    307.87637   -55363.281    55353.049   -16.653602    38.758523 
196708000    315.53782    150.35218    545.48842   -55384.534    55346.851   -395.13624    38.757891 
196712000    327.62485    687.41148    231.86575    -55392.72    55375.258    455.54573    38.756733 
196716000    311.09883    498.56056    279.18147   -55394.512    55393.941    219.37909    38.752116 
196720000    295.96578    455.55202    316.49669   -55400.856    55408.974    139.05532    38.759656 
196724000    291.92892    350.71649    364.62409   -55405.659     55420.56   -13.907607    38.759349 
196728000    274.00755    272.51264    176.05144   -55418.725     55444.69      96.4612    38.756715 
196732000    298.43813    132.72017    450.98611   -55421.558    55422.869   -318.26594    38.752642 
196736000    278.82331    276.94164     271.9707    -55420.82    55433.258    4.9709458    38.751929 
196740000    281.66139    307.69414    553.09789   -55433.529    55440.157   -245.40376    38.751378 
196744000    283.51103    475.86305    326.72474   -55445.479    55453.278    149.13832    38.751486 
196748000    289.10741    325.65868    558.45599   -55432.657    55441.628   -232.79731    38.750762 
196752000    265.58205    305.64383    114.70081   -55432.162    55457.188    190.94302    38.756318 
196756000    298.10811    265.43488     391.2825   -55447.179    55459.193   -125.84762    38.752283 
196760000    268.50801    248.58605    270.34345   -55455.016     55481.38     -21.7574     38.75791 
196764000    266.94443     192.8513    404.32087    -55455.75    55479.014   -211.46957    38.757737 
196768000    271.97129    214.31079    386.04083    -55467.37    55483.358   -171.73004    38.758845 
196772000     284.4831    307.53004    308.05962   -55478.082    55500.609  -0.52957581     38.75476 
196776000    276.61919    427.67739    421.79302   -55499.512    55508.014    5.8843666     38.75212 
196780000    257.14726    307.13419    245.68481   -55504.219    55536.216    61.449382    38.751575 
196784000    256.42772    238.96358    301.58757   -55501.595    55527.704   -62.623992    38.746498 
196788000     253.2893     457.6466    246.51454    -55500.34    55545.325    211.13206    38.744207 
196792000    282.05022    404.56922    274.75048   -55510.664    55529.333    129.81874    38.745708 
196796000    244.23397    161.00676    269.35946   -55506.555    55537.839    -108.3527    38.742253 
196800000    271.00058    297.02042     414.0938   -55506.024    55523.008   -117.07338    38.741943 
196804000    253.01827    439.78179    213.58422   -55503.958    55540.632    226.19758    38.737613 
196808000    240.56861    306.14112    219.23071    -55520.62    55535.502    86.910411    38.736813 
196812000     254.6412    129.32239    319.61455   -55520.743    55531.211   -190.29217    38.736544 
196816000     272.4208    316.02265    269.40614   -55518.728    55534.605    46.616505    38.738416 
196820000    253.78127    507.15007     247.5866   -55530.559    55544.235    259.56347    38.738439 
196824000    256.12739    406.31025    318.91076   -55527.729    55547.438    87.399486    38.734056 
196826000    242.73211    444.43744    310.69943   -55523.595    55533.366    133.73801    38.734056 
Loop time of 2523.74 on 24 procs for 32000000 steps with 196 atoms

Performance: 1369.395 ns/day, 0.018 hours/ns, 12679.588 timesteps/s
99.9% CPU use with 24 MPI tasks x no OpenMP threads

MPI task timing breakdown:
Section |  min time  |  avg time  |  max time  |%varavg| %total
---------------------------------------------------------------
Pair    | 1.1984     | 31.179     | 275.63     |1302.1 |  1.24
Bond    | 1.6187     | 84.12      | 758.57     |2189.4 |  3.33
Neigh   | 18.833     | 21.892     | 23.057     |  29.0 |  0.87
Comm    | 10.13      | 165.73     | 1279.2     |2821.4 |  6.57
Output  | 4.5245     | 4.9937     | 5.0181     |   4.4 |  0.20
Modify  | 596.98     | 1868.3     | 2113.3     |1256.0 | 74.03
Other   |            | 347.5      |            |       | 13.77

Nlocal:    8.16667 ave 88 max 0 min
Histogram: 21 0 0 1 0 0 0 0 1 1
Nghost:    12.4167 ave 115 max 0 min
Histogram: 20 0 0 1 1 0 0 0 1 1
Neighs:    74.7917 ave 802 max 0 min
Histogram: 21 0 0 1 0 0 0 0 1 1

Total # of neighbors = 1795
Ave neighs/atom = 9.15816
Ave special neighs/atom = 5.93878
Neighbor list builds = 355152
Dangerous builds = 0

write_restart FINALCONFIG

#and everyone lived happily ever after, THE END
Total wall time: 0:43:06
