LAMMPS UA chain data file
 
        1498  atoms
         197  bonds
          96  angles
          95  dihedrals
           0  impropers
 
           4  atom types
           3  bond types
           2  angle types
           1  dihedral types
           0  improper types
 
    0.000000      20.000000 xlo xhi
    0.000000      20.000000 ylo yhi
    -29.6000      147.30000 zlo zhi
 
Masses
 
  1   14.00
  2   32.06
  3  107.87
  4  107.87
 
Atoms
 
         1       1       2    9.1919    9.1919    0.0000   0   0   0
         2       1       1    8.6069    9.0339    1.3876   0   0   0
         3       1       1    9.3618    8.1845    2.3689   0   0   0
         4       1       1    8.7192    7.9947    3.7150   0   0   0
         5       1       1    9.5089    7.2385    4.7574   0   0   0
         6       1       1    8.8565    7.4413    6.0423   0   0   0
         7       1       1    9.3225    6.6487    7.2466   0   0   0
         8       1       1    8.5662    7.0263    8.4290   0   0   0
         9       1       1    9.1656    6.3487    9.6130   0   0   0
        10       1       1    8.8200    7.0714   10.8467   0   0   0
        11       1       1    9.2824    6.1591   11.9107   0   0   0
        12       1       1    8.8195    6.7398   13.2504   0   0   0
        13       1       1    9.0089    5.9442   14.5099   0   0   0
        14       1       1    8.5382    6.8802   15.5747   0   0   0
        15       1       1    8.3607    6.1049   16.8166   0   0   0
        16       1       1    8.5472    6.9768   17.9559   0   0   0
        17       1       1    8.6023    6.1316   19.1739   0   0   0
        18       1       1    8.8528    7.0822   20.3464   0   0   0
        19       1       1    8.6044    6.2607   21.5863   0   0   0
        20       1       1    8.4992    7.1396   22.7836   0   0   0
        21       1       1    8.6431    6.3485   24.0148   0   0   0
        22       1       1    8.7835    7.2647   25.1925   0   0   0
        23       1       1    8.9582    6.5723   26.4314   0   0   0
        24       1       1    8.7605    7.4115   27.6348   0   0   0
        25       1       1    8.9860    6.6894   28.8894   0   0   0
        26       1       1    8.7213    7.7113   29.9640   0   0   0
        27       1       1    9.1056    7.0620   31.2423   0   0   0
        28       1       1    8.8923    7.9259   32.4408   0   0   0
        29       1       1    9.7004    7.6180   33.5715   0   0   0
        30       1       1    9.0732    8.2059   34.7812   0   0   0
        31       1       1    9.5766    7.4716   36.0244   0   0   0
        32       1       1    9.0565    8.1635   37.2774   0   0   0
        33       1       1    9.4165    7.4976   38.4944   0   0   0
        34       1       1    9.0921    8.4814   39.5922   0   0   0
        35       1       1    9.5232    7.8310   40.8248   0   0   0
        36       1       1    9.1885    8.7585   42.0021   0   0   0
        37       1       1    9.4472    8.0610   43.2752   0   0   0
        38       1       1    9.1862    8.9671   44.4322   0   0   0
        39       1       1    9.5906    8.2607   45.7260   0   0   0
        40       1       1    9.4740    9.1415   46.8522   0   0   0
        41       1       1    9.8771    8.4831   48.1241   0   0   0
        42       1       1    9.8718    9.4325   49.2451   0   0   0
        43       1       1    9.9325    8.7837   50.5661   0   0   0
        44       1       1    9.9264    9.8291   51.6587   0   0   0
        45       1       1    9.8948    9.3302   53.0319   0   0   0
        46       1       1   10.0689   10.3898   54.0656   0   0   0
        47       1       1   10.0117    9.7135   55.3247   0   0   0
        48       1       1    9.9138   10.5748   56.5645   0   0   0
        49       1       1    9.9233    9.7931   57.8529   0   0   0
        50       1       1    9.9475   10.6682   59.0756   0   0   0
        51       1       1   10.1697    9.9887   60.3641   0   0   0
        52       1       1    9.5211   10.8426   61.4087   0   0   0
        53       1       1    9.7857   10.2533   62.7244   0   0   0
        54       1       1    9.5229   11.1646   63.8418   0   0   0
        55       1       1    9.7042   10.4831   65.1515   0   0   0
        56       1       1    9.3719   11.4287   66.1836   0   0   0
        57       1       1    9.5745   10.7177   67.4481   0   0   0
        58       1       1    9.7281   11.6121   68.6308   0   0   0
        59       1       1    9.6439   10.8969   69.9633   0   0   0
        60       1       1    9.7393   11.7380   71.2021   0   0   0
        61       1       1    9.9189   11.0337   72.4788   0   0   0
        62       1       1   10.0429   11.8695   73.6733   0   0   0
        63       1       1   10.3679   10.9813   74.8920   0   0   0
        64       1       1   10.5881   11.9152   76.0621   0   0   0
        65       1       1   10.4290   11.1301   77.3518   0   0   0
        66       1       1   10.1493   11.9815   78.5092   0   0   0
        67       1       1   10.6967   11.3800   79.7268   0   0   0
        68       1       1   10.1708   12.1334   80.9370   0   0   0
        69       1       1   10.4064   11.2518   82.1151   0   0   0
        70       1       1   10.2998   11.9440   83.4325   0   0   0
        71       1       1   10.8000   11.1393   84.5710   0   0   0
        72       1       1   10.4962   11.9176   85.7498   0   0   0
        73       1       1   11.0048   11.3473   87.0642   0   0   0
        74       1       1   10.6578   12.1266   88.2490   0   0   0
        75       1       1   11.0390   11.4904   89.5083   0   0   0
        76       1       1   10.4520   12.2165   90.7093   0   0   0
        77       1       1   10.9561   11.5206   91.8855   0   0   0
        78       1       1   10.5854   12.1877   93.1945   0   0   0
        79       1       1   11.1001   11.3927   94.3886   0   0   0
        80       1       1   10.7138   12.1204   95.6574   0   0   0
        81       1       1   11.1088   11.2177   96.7509   0   0   0
        82       1       1   11.1366   11.9858   98.0903   0   0   0
        83       1       1   11.3490   11.0530   99.2626   0   0   0
        84       1       1   11.0860   11.7773  100.5546   0   0   0
        85       1       1   11.1323   10.8268  101.7307   0   0   0
        86       1       1   10.9936   11.5885  103.0132   0   0   0
        87       1       1   11.1514   10.5962  104.1523   0   0   0
        88       1       1   11.0633   11.2379  105.4852   0   0   0
        89       1       1   11.1370   10.1829  106.5586   0   0   0
        90       1       1   10.9694   10.8197  107.9029   0   0   0
        91       1       1   11.1653    9.8168  108.9602   0   0   0
        92       1       1   10.9677   10.4310  110.2798   0   0   0
        93       1       1   10.9162    9.4389  111.4236   0   0   0
        94       1       1   10.8437   10.1571  112.7118   0   0   0
        95       1       1   10.7496    9.2152  113.8470   0   0   0
        96       1       1   10.8647    9.8632  115.1714   0   0   0
        97       1       1   10.9182    8.7549  116.1708   0   0   0
        98       1       2   10.5879    9.2239  117.6651   0   0   0
        99       1       3    0.0000    0.0000  -27.1458   0   0   0
       100       1       3    2.0427    2.0427  -27.1458   0   0   0
       101       1       3    2.0427    0.0000  -25.1032   0   0   0
       102       1       3    0.0000    2.0427  -25.1032   0   0   0
       103       1       3    4.0853    0.0000  -27.1458   0   0   0
       104       1       3    6.1280    2.0427  -27.1458   0   0   0
       105       1       3    6.1280    0.0000  -25.1032   0   0   0
       106       1       3    4.0853    2.0427  -25.1032   0   0   0
       107       1       3    8.1706    0.0000  -27.1458   0   0   0
       108       1       3   10.2133    2.0427  -27.1458   0   0   0
       109       1       3   10.2133    0.0000  -25.1032   0   0   0
       110       1       3    8.1706    2.0427  -25.1032   0   0   0
       111       1       3   12.2559    0.0000  -27.1458   0   0   0
       112       1       3   14.2986    2.0427  -27.1458   0   0   0
       113       1       3   14.2986    0.0000  -25.1032   0   0   0
       114       1       3   12.2559    2.0427  -25.1032   0   0   0
       115       1       3   16.3412    0.0000  -27.1458   0   0   0
       116       1       3   18.3839    2.0427  -27.1458   0   0   0
       117       1       3   18.3839    0.0000  -25.1032   0   0   0
       118       1       3   16.3412    2.0427  -25.1032   0   0   0
       119       1       3    0.0000    4.0853  -27.1458   0   0   0
       120       1       3    2.0427    6.1280  -27.1458   0   0   0
       121       1       3    2.0427    4.0853  -25.1032   0   0   0
       122       1       3    0.0000    6.1280  -25.1032   0   0   0
       123       1       3    4.0853    4.0853  -27.1458   0   0   0
       124       1       3    6.1280    6.1280  -27.1458   0   0   0
       125       1       3    6.1280    4.0853  -25.1032   0   0   0
       126       1       3    4.0853    6.1280  -25.1032   0   0   0
       127       1       3    8.1706    4.0853  -27.1458   0   0   0
       128       1       3   10.2133    6.1280  -27.1458   0   0   0
       129       1       3   10.2133    4.0853  -25.1032   0   0   0
       130       1       3    8.1706    6.1280  -25.1032   0   0   0
       131       1       3   12.2559    4.0853  -27.1458   0   0   0
       132       1       3   14.2986    6.1280  -27.1458   0   0   0
       133       1       3   14.2986    4.0853  -25.1032   0   0   0
       134       1       3   12.2559    6.1280  -25.1032   0   0   0
       135       1       3   16.3412    4.0853  -27.1458   0   0   0
       136       1       3   18.3839    6.1280  -27.1458   0   0   0
       137       1       3   18.3839    4.0853  -25.1032   0   0   0
       138       1       3   16.3412    6.1280  -25.1032   0   0   0
       139       1       3    0.0000    8.1706  -27.1458   0   0   0
       140       1       3    2.0427   10.2133  -27.1458   0   0   0
       141       1       3    2.0427    8.1706  -25.1032   0   0   0
       142       1       3    0.0000   10.2133  -25.1032   0   0   0
       143       1       3    4.0853    8.1706  -27.1458   0   0   0
       144       1       3    6.1280   10.2133  -27.1458   0   0   0
       145       1       3    6.1280    8.1706  -25.1032   0   0   0
       146       1       3    4.0853   10.2133  -25.1032   0   0   0
       147       1       3    8.1706    8.1706  -27.1458   0   0   0
       148       1       3   10.2133   10.2133  -27.1458   0   0   0
       149       1       3   10.2133    8.1706  -25.1032   0   0   0
       150       1       3    8.1706   10.2133  -25.1032   0   0   0
       151       1       3   12.2559    8.1706  -27.1458   0   0   0
       152       1       3   14.2986   10.2133  -27.1458   0   0   0
       153       1       3   14.2986    8.1706  -25.1032   0   0   0
       154       1       3   12.2559   10.2133  -25.1032   0   0   0
       155       1       3   16.3412    8.1706  -27.1458   0   0   0
       156       1       3   18.3839   10.2133  -27.1458   0   0   0
       157       1       3   18.3839    8.1706  -25.1032   0   0   0
       158       1       3   16.3412   10.2133  -25.1032   0   0   0
       159       1       3    0.0000   12.2559  -27.1458   0   0   0
       160       1       3    2.0427   14.2986  -27.1458   0   0   0
       161       1       3    2.0427   12.2559  -25.1032   0   0   0
       162       1       3    0.0000   14.2986  -25.1032   0   0   0
       163       1       3    4.0853   12.2559  -27.1458   0   0   0
       164       1       3    6.1280   14.2986  -27.1458   0   0   0
       165       1       3    6.1280   12.2559  -25.1032   0   0   0
       166       1       3    4.0853   14.2986  -25.1032   0   0   0
       167       1       3    8.1706   12.2559  -27.1458   0   0   0
       168       1       3   10.2133   14.2986  -27.1458   0   0   0
       169       1       3   10.2133   12.2559  -25.1032   0   0   0
       170       1       3    8.1706   14.2986  -25.1032   0   0   0
       171       1       3   12.2559   12.2559  -27.1458   0   0   0
       172       1       3   14.2986   14.2986  -27.1458   0   0   0
       173       1       3   14.2986   12.2559  -25.1032   0   0   0
       174       1       3   12.2559   14.2986  -25.1032   0   0   0
       175       1       3   16.3412   12.2559  -27.1458   0   0   0
       176       1       3   18.3839   14.2986  -27.1458   0   0   0
       177       1       3   18.3839   12.2559  -25.1032   0   0   0
       178       1       3   16.3412   14.2986  -25.1032   0   0   0
       179       1       3    0.0000   16.3412  -27.1458   0   0   0
       180       1       3    2.0427   18.3839  -27.1458   0   0   0
       181       1       3    2.0427   16.3412  -25.1032   0   0   0
       182       1       3    0.0000   18.3839  -25.1032   0   0   0
       183       1       3    4.0853   16.3412  -27.1458   0   0   0
       184       1       3    6.1280   18.3839  -27.1458   0   0   0
       185       1       3    6.1280   16.3412  -25.1032   0   0   0
       186       1       3    4.0853   18.3839  -25.1032   0   0   0
       187       1       3    8.1706   16.3412  -27.1458   0   0   0
       188       1       3   10.2133   18.3839  -27.1458   0   0   0
       189       1       3   10.2133   16.3412  -25.1032   0   0   0
       190       1       3    8.1706   18.3839  -25.1032   0   0   0
       191       1       3   12.2559   16.3412  -27.1458   0   0   0
       192       1       3   14.2986   18.3839  -27.1458   0   0   0
       193       1       3   14.2986   16.3412  -25.1032   0   0   0
       194       1       3   12.2559   18.3839  -25.1032   0   0   0
       195       1       3   16.3412   16.3412  -27.1458   0   0   0
       196       1       3   18.3839   18.3839  -27.1458   0   0   0
       197       1       3   18.3839   16.3412  -25.1032   0   0   0
       198       1       3   16.3412   18.3839  -25.1032   0   0   0
       199       1       3    0.0000    0.0000  -23.0605   0   0   0
       200       1       3    2.0427    2.0427  -23.0605   0   0   0
       201       1       3    2.0427    0.0000  -21.0179   0   0   0
       202       1       3    0.0000    2.0427  -21.0179   0   0   0
       203       1       3    4.0853    0.0000  -23.0605   0   0   0
       204       1       3    6.1280    2.0427  -23.0605   0   0   0
       205       1       3    6.1280    0.0000  -21.0179   0   0   0
       206       1       3    4.0853    2.0427  -21.0179   0   0   0
       207       1       3    8.1706    0.0000  -23.0605   0   0   0
       208       1       3   10.2133    2.0427  -23.0605   0   0   0
       209       1       3   10.2133    0.0000  -21.0179   0   0   0
       210       1       3    8.1706    2.0427  -21.0179   0   0   0
       211       1       3   12.2559    0.0000  -23.0605   0   0   0
       212       1       3   14.2986    2.0427  -23.0605   0   0   0
       213       1       3   14.2986    0.0000  -21.0179   0   0   0
       214       1       3   12.2559    2.0427  -21.0179   0   0   0
       215       1       3   16.3412    0.0000  -23.0605   0   0   0
       216       1       3   18.3839    2.0427  -23.0605   0   0   0
       217       1       3   18.3839    0.0000  -21.0179   0   0   0
       218       1       3   16.3412    2.0427  -21.0179   0   0   0
       219       1       3    0.0000    4.0853  -23.0605   0   0   0
       220       1       3    2.0427    6.1280  -23.0605   0   0   0
       221       1       3    2.0427    4.0853  -21.0179   0   0   0
       222       1       3    0.0000    6.1280  -21.0179   0   0   0
       223       1       3    4.0853    4.0853  -23.0605   0   0   0
       224       1       3    6.1280    6.1280  -23.0605   0   0   0
       225       1       3    6.1280    4.0853  -21.0179   0   0   0
       226       1       3    4.0853    6.1280  -21.0179   0   0   0
       227       1       3    8.1706    4.0853  -23.0605   0   0   0
       228       1       3   10.2133    6.1280  -23.0605   0   0   0
       229       1       3   10.2133    4.0853  -21.0179   0   0   0
       230       1       3    8.1706    6.1280  -21.0179   0   0   0
       231       1       3   12.2559    4.0853  -23.0605   0   0   0
       232       1       3   14.2986    6.1280  -23.0605   0   0   0
       233       1       3   14.2986    4.0853  -21.0179   0   0   0
       234       1       3   12.2559    6.1280  -21.0179   0   0   0
       235       1       3   16.3412    4.0853  -23.0605   0   0   0
       236       1       3   18.3839    6.1280  -23.0605   0   0   0
       237       1       3   18.3839    4.0853  -21.0179   0   0   0
       238       1       3   16.3412    6.1280  -21.0179   0   0   0
       239       1       3    0.0000    8.1706  -23.0605   0   0   0
       240       1       3    2.0427   10.2133  -23.0605   0   0   0
       241       1       3    2.0427    8.1706  -21.0179   0   0   0
       242       1       3    0.0000   10.2133  -21.0179   0   0   0
       243       1       3    4.0853    8.1706  -23.0605   0   0   0
       244       1       3    6.1280   10.2133  -23.0605   0   0   0
       245       1       3    6.1280    8.1706  -21.0179   0   0   0
       246       1       3    4.0853   10.2133  -21.0179   0   0   0
       247       1       3    8.1706    8.1706  -23.0605   0   0   0
       248       1       3   10.2133   10.2133  -23.0605   0   0   0
       249       1       3   10.2133    8.1706  -21.0179   0   0   0
       250       1       3    8.1706   10.2133  -21.0179   0   0   0
       251       1       3   12.2559    8.1706  -23.0605   0   0   0
       252       1       3   14.2986   10.2133  -23.0605   0   0   0
       253       1       3   14.2986    8.1706  -21.0179   0   0   0
       254       1       3   12.2559   10.2133  -21.0179   0   0   0
       255       1       3   16.3412    8.1706  -23.0605   0   0   0
       256       1       3   18.3839   10.2133  -23.0605   0   0   0
       257       1       3   18.3839    8.1706  -21.0179   0   0   0
       258       1       3   16.3412   10.2133  -21.0179   0   0   0
       259       1       3    0.0000   12.2559  -23.0605   0   0   0
       260       1       3    2.0427   14.2986  -23.0605   0   0   0
       261       1       3    2.0427   12.2559  -21.0179   0   0   0
       262       1       3    0.0000   14.2986  -21.0179   0   0   0
       263       1       3    4.0853   12.2559  -23.0605   0   0   0
       264       1       3    6.1280   14.2986  -23.0605   0   0   0
       265       1       3    6.1280   12.2559  -21.0179   0   0   0
       266       1       3    4.0853   14.2986  -21.0179   0   0   0
       267       1       3    8.1706   12.2559  -23.0605   0   0   0
       268       1       3   10.2133   14.2986  -23.0605   0   0   0
       269       1       3   10.2133   12.2559  -21.0179   0   0   0
       270       1       3    8.1706   14.2986  -21.0179   0   0   0
       271       1       3   12.2559   12.2559  -23.0605   0   0   0
       272       1       3   14.2986   14.2986  -23.0605   0   0   0
       273       1       3   14.2986   12.2559  -21.0179   0   0   0
       274       1       3   12.2559   14.2986  -21.0179   0   0   0
       275       1       3   16.3412   12.2559  -23.0605   0   0   0
       276       1       3   18.3839   14.2986  -23.0605   0   0   0
       277       1       3   18.3839   12.2559  -21.0179   0   0   0
       278       1       3   16.3412   14.2986  -21.0179   0   0   0
       279       1       3    0.0000   16.3412  -23.0605   0   0   0
       280       1       3    2.0427   18.3839  -23.0605   0   0   0
       281       1       3    2.0427   16.3412  -21.0179   0   0   0
       282       1       3    0.0000   18.3839  -21.0179   0   0   0
       283       1       3    4.0853   16.3412  -23.0605   0   0   0
       284       1       3    6.1280   18.3839  -23.0605   0   0   0
       285       1       3    6.1280   16.3412  -21.0179   0   0   0
       286       1       3    4.0853   18.3839  -21.0179   0   0   0
       287       1       3    8.1706   16.3412  -23.0605   0   0   0
       288       1       3   10.2133   18.3839  -23.0605   0   0   0
       289       1       3   10.2133   16.3412  -21.0179   0   0   0
       290       1       3    8.1706   18.3839  -21.0179   0   0   0
       291       1       3   12.2559   16.3412  -23.0605   0   0   0
       292       1       3   14.2986   18.3839  -23.0605   0   0   0
       293       1       3   14.2986   16.3412  -21.0179   0   0   0
       294       1       3   12.2559   18.3839  -21.0179   0   0   0
       295       1       3   16.3412   16.3412  -23.0605   0   0   0
       296       1       3   18.3839   18.3839  -23.0605   0   0   0
       297       1       3   18.3839   16.3412  -21.0179   0   0   0
       298       1       3   16.3412   18.3839  -21.0179   0   0   0
       299       1       3    0.0000    0.0000  -18.9752   0   0   0
       300       1       3    2.0427    2.0427  -18.9752   0   0   0
       301       1       3    2.0427    0.0000  -16.9326   0   0   0
       302       1       3    0.0000    2.0427  -16.9326   0   0   0
       303       1       3    4.0853    0.0000  -18.9752   0   0   0
       304       1       3    6.1280    2.0427  -18.9752   0   0   0
       305       1       3    6.1280    0.0000  -16.9326   0   0   0
       306       1       3    4.0853    2.0427  -16.9326   0   0   0
       307       1       3    8.1706    0.0000  -18.9752   0   0   0
       308       1       3   10.2133    2.0427  -18.9752   0   0   0
       309       1       3   10.2133    0.0000  -16.9326   0   0   0
       310       1       3    8.1706    2.0427  -16.9326   0   0   0
       311       1       3   12.2559    0.0000  -18.9752   0   0   0
       312       1       3   14.2986    2.0427  -18.9752   0   0   0
       313       1       3   14.2986    0.0000  -16.9326   0   0   0
       314       1       3   12.2559    2.0427  -16.9326   0   0   0
       315       1       3   16.3412    0.0000  -18.9752   0   0   0
       316       1       3   18.3839    2.0427  -18.9752   0   0   0
       317       1       3   18.3839    0.0000  -16.9326   0   0   0
       318       1       3   16.3412    2.0427  -16.9326   0   0   0
       319       1       3    0.0000    4.0853  -18.9752   0   0   0
       320       1       3    2.0427    6.1280  -18.9752   0   0   0
       321       1       3    2.0427    4.0853  -16.9326   0   0   0
       322       1       3    0.0000    6.1280  -16.9326   0   0   0
       323       1       3    4.0853    4.0853  -18.9752   0   0   0
       324       1       3    6.1280    6.1280  -18.9752   0   0   0
       325       1       3    6.1280    4.0853  -16.9326   0   0   0
       326       1       3    4.0853    6.1280  -16.9326   0   0   0
       327       1       3    8.1706    4.0853  -18.9752   0   0   0
       328       1       3   10.2133    6.1280  -18.9752   0   0   0
       329       1       3   10.2133    4.0853  -16.9326   0   0   0
       330       1       3    8.1706    6.1280  -16.9326   0   0   0
       331       1       3   12.2559    4.0853  -18.9752   0   0   0
       332       1       3   14.2986    6.1280  -18.9752   0   0   0
       333       1       3   14.2986    4.0853  -16.9326   0   0   0
       334       1       3   12.2559    6.1280  -16.9326   0   0   0
       335       1       3   16.3412    4.0853  -18.9752   0   0   0
       336       1       3   18.3839    6.1280  -18.9752   0   0   0
       337       1       3   18.3839    4.0853  -16.9326   0   0   0
       338       1       3   16.3412    6.1280  -16.9326   0   0   0
       339       1       3    0.0000    8.1706  -18.9752   0   0   0
       340       1       3    2.0427   10.2133  -18.9752   0   0   0
       341       1       3    2.0427    8.1706  -16.9326   0   0   0
       342       1       3    0.0000   10.2133  -16.9326   0   0   0
       343       1       3    4.0853    8.1706  -18.9752   0   0   0
       344       1       3    6.1280   10.2133  -18.9752   0   0   0
       345       1       3    6.1280    8.1706  -16.9326   0   0   0
       346       1       3    4.0853   10.2133  -16.9326   0   0   0
       347       1       3    8.1706    8.1706  -18.9752   0   0   0
       348       1       3   10.2133   10.2133  -18.9752   0   0   0
       349       1       3   10.2133    8.1706  -16.9326   0   0   0
       350       1       3    8.1706   10.2133  -16.9326   0   0   0
       351       1       3   12.2559    8.1706  -18.9752   0   0   0
       352       1       3   14.2986   10.2133  -18.9752   0   0   0
       353       1       3   14.2986    8.1706  -16.9326   0   0   0
       354       1       3   12.2559   10.2133  -16.9326   0   0   0
       355       1       3   16.3412    8.1706  -18.9752   0   0   0
       356       1       3   18.3839   10.2133  -18.9752   0   0   0
       357       1       3   18.3839    8.1706  -16.9326   0   0   0
       358       1       3   16.3412   10.2133  -16.9326   0   0   0
       359       1       3    0.0000   12.2559  -18.9752   0   0   0
       360       1       3    2.0427   14.2986  -18.9752   0   0   0
       361       1       3    2.0427   12.2559  -16.9326   0   0   0
       362       1       3    0.0000   14.2986  -16.9326   0   0   0
       363       1       3    4.0853   12.2559  -18.9752   0   0   0
       364       1       3    6.1280   14.2986  -18.9752   0   0   0
       365       1       3    6.1280   12.2559  -16.9326   0   0   0
       366       1       3    4.0853   14.2986  -16.9326   0   0   0
       367       1       3    8.1706   12.2559  -18.9752   0   0   0
       368       1       3   10.2133   14.2986  -18.9752   0   0   0
       369       1       3   10.2133   12.2559  -16.9326   0   0   0
       370       1       3    8.1706   14.2986  -16.9326   0   0   0
       371       1       3   12.2559   12.2559  -18.9752   0   0   0
       372       1       3   14.2986   14.2986  -18.9752   0   0   0
       373       1       3   14.2986   12.2559  -16.9326   0   0   0
       374       1       3   12.2559   14.2986  -16.9326   0   0   0
       375       1       3   16.3412   12.2559  -18.9752   0   0   0
       376       1       3   18.3839   14.2986  -18.9752   0   0   0
       377       1       3   18.3839   12.2559  -16.9326   0   0   0
       378       1       3   16.3412   14.2986  -16.9326   0   0   0
       379       1       3    0.0000   16.3412  -18.9752   0   0   0
       380       1       3    2.0427   18.3839  -18.9752   0   0   0
       381       1       3    2.0427   16.3412  -16.9326   0   0   0
       382       1       3    0.0000   18.3839  -16.9326   0   0   0
       383       1       3    4.0853   16.3412  -18.9752   0   0   0
       384       1       3    6.1280   18.3839  -18.9752   0   0   0
       385       1       3    6.1280   16.3412  -16.9326   0   0   0
       386       1       3    4.0853   18.3839  -16.9326   0   0   0
       387       1       3    8.1706   16.3412  -18.9752   0   0   0
       388       1       3   10.2133   18.3839  -18.9752   0   0   0
       389       1       3   10.2133   16.3412  -16.9326   0   0   0
       390       1       3    8.1706   18.3839  -16.9326   0   0   0
       391       1       3   12.2559   16.3412  -18.9752   0   0   0
       392       1       3   14.2986   18.3839  -18.9752   0   0   0
       393       1       3   14.2986   16.3412  -16.9326   0   0   0
       394       1       3   12.2559   18.3839  -16.9326   0   0   0
       395       1       3   16.3412   16.3412  -18.9752   0   0   0
       396       1       3   18.3839   18.3839  -18.9752   0   0   0
       397       1       3   18.3839   16.3412  -16.9326   0   0   0
       398       1       3   16.3412   18.3839  -16.9326   0   0   0
       399       1       3    0.0000    0.0000  -14.8899   0   0   0
       400       1       3    2.0427    2.0427  -14.8899   0   0   0
       401       1       3    2.0427    0.0000  -12.8473   0   0   0
       402       1       3    0.0000    2.0427  -12.8473   0   0   0
       403       1       3    4.0853    0.0000  -14.8899   0   0   0
       404       1       3    6.1280    2.0427  -14.8899   0   0   0
       405       1       3    6.1280    0.0000  -12.8473   0   0   0
       406       1       3    4.0853    2.0427  -12.8473   0   0   0
       407       1       3    8.1706    0.0000  -14.8899   0   0   0
       408       1       3   10.2133    2.0427  -14.8899   0   0   0
       409       1       3   10.2133    0.0000  -12.8473   0   0   0
       410       1       3    8.1706    2.0427  -12.8473   0   0   0
       411       1       3   12.2559    0.0000  -14.8899   0   0   0
       412       1       3   14.2986    2.0427  -14.8899   0   0   0
       413       1       3   14.2986    0.0000  -12.8473   0   0   0
       414       1       3   12.2559    2.0427  -12.8473   0   0   0
       415       1       3   16.3412    0.0000  -14.8899   0   0   0
       416       1       3   18.3839    2.0427  -14.8899   0   0   0
       417       1       3   18.3839    0.0000  -12.8473   0   0   0
       418       1       3   16.3412    2.0427  -12.8473   0   0   0
       419       1       3    0.0000    4.0853  -14.8899   0   0   0
       420       1       3    2.0427    6.1280  -14.8899   0   0   0
       421       1       3    2.0427    4.0853  -12.8473   0   0   0
       422       1       3    0.0000    6.1280  -12.8473   0   0   0
       423       1       3    4.0853    4.0853  -14.8899   0   0   0
       424       1       3    6.1280    6.1280  -14.8899   0   0   0
       425       1       3    6.1280    4.0853  -12.8473   0   0   0
       426       1       3    4.0853    6.1280  -12.8473   0   0   0
       427       1       3    8.1706    4.0853  -14.8899   0   0   0
       428       1       3   10.2133    6.1280  -14.8899   0   0   0