LAMMPS UA chain data file
 
        1970  atoms
         241  bonds
          96  angles
          95  dihedrals
           0  impropers
 
           4  atom types
           3  bond types
           2  angle types
           1  dihedral types
           0  improper types
 
    0.000000      22.000000 xlo xhi
    0.000000      22.000000 ylo yhi
    -26.8000      150.5000 zlo zhi
 
Masses
 
  1   14.00
  2   32.06
  3  195.08
  4  195.08
 
Atoms
 
         1       1       2   10.7800   10.7800    0.0000   0   0   0
         2       1       1   10.1950   10.6219    1.4606   0   0   0
         3       1       1   10.9499    9.7726    2.4936   0   0   0
         4       1       1   10.3073    9.5828    3.9105   0   0   0
         5       1       1   11.0970    8.8266    5.0078   0   0   0
         6       1       1   10.4446    9.0294    6.3603   0   0   0
         7       1       1   10.9106    8.2368    7.6280   0   0   0
         8       1       1   10.1543    8.6144    8.8727   0   0   0
         9       1       1   10.7536    7.9368   10.1189   0   0   0
        10       1       1   10.4081    8.6595   11.4176   0   0   0
        11       1       1   10.8704    7.7472   12.5376   0   0   0
        12       1       1   10.4076    8.3279   13.9478   0   0   0
        13       1       1   10.5970    7.5323   15.2736   0   0   0
        14       1       1   10.1263    8.4682   16.3944   0   0   0
        15       1       1    9.9488    7.6930   17.7017   0   0   0
        16       1       1   10.1353    8.5649   18.9009   0   0   0
        17       1       1   10.1904    7.7197   20.1831   0   0   0
        18       1       1   10.4409    8.6703   21.4173   0   0   0
        19       1       1   10.1925    7.8488   22.7224   0   0   0
        20       1       1   10.0873    8.7277   23.9827   0   0   0
        21       1       1   10.2312    7.9366   25.2787   0   0   0
        22       1       1   10.3716    8.8527   26.5184   0   0   0
        23       1       1   10.5463    8.1604   27.8225   0   0   0
        24       1       1   10.3486    8.9995   29.0893   0   0   0
        25       1       1   10.5741    8.2775   30.4099   0   0   0
        26       1       1   10.3094    9.2993   31.5411   0   0   0
        27       1       1   10.6937    8.6501   32.8866   0   0   0
        28       1       1   10.4804    9.5140   34.1482   0   0   0
        29       1       1   11.2885    9.2061   35.3384   0   0   0
        30       1       1   10.6612    9.7940   36.6118   0   0   0
        31       1       1   11.1647    9.0597   37.9204   0   0   0
        32       1       1   10.6445    9.7516   39.2394   0   0   0
        33       1       1   11.0046    9.0857   40.5204   0   0   0
        34       1       1   10.6802   10.0695   41.6760   0   0   0
        35       1       1   11.1112    9.4191   42.9735   0   0   0
        36       1       1   10.7766   10.3466   44.2127   0   0   0
        37       1       1   11.0352    9.6491   45.5528   0   0   0
        38       1       1   10.7743   10.5552   46.7707   0   0   0
        39       1       1   11.1787    9.8488   48.1326   0   0   0
        40       1       1   11.0620   10.7295   49.3181   0   0   0
        41       1       1   11.4652   10.0711   50.6569   0   0   0
        42       1       1   11.4598   11.0206   51.8369   0   0   0
        43       1       1   11.5206   10.3718   53.2275   0   0   0
        44       1       1   11.5145   11.4172   54.3776   0   0   0
        45       1       1   11.4829   10.9183   55.8230   0   0   0
        46       1       1   11.6570   11.9778   56.9112   0   0   0
        47       1       1   11.5998   11.3016   58.2365   0   0   0
        48       1       1   11.5019   12.1629   59.5416   0   0   0
        49       1       1   11.5114   11.3811   60.8978   0   0   0
        50       1       1   11.5356   12.2563   62.1848   0   0   0
        51       1       1   11.7578   11.5768   63.5412   0   0   0
        52       1       1   11.1091   12.4307   64.6407   0   0   0
        53       1       1   11.3738   11.8414   66.0257   0   0   0
        54       1       1   11.1109   12.7526   67.2019   0   0   0
        55       1       1   11.2923   12.0711   68.5805   0   0   0
        56       1       1   10.9599   13.0167   69.6670   0   0   0
        57       1       1   11.1626   12.3057   70.9980   0   0   0
        58       1       1   11.3162   13.2001   72.2430   0   0   0
        59       1       1   11.2320   12.4850   73.6456   0   0   0
        60       1       1   11.3274   13.3261   74.9496   0   0   0
        61       1       1   11.5069   12.6217   76.2935   0   0   0
        62       1       1   11.6310   13.4575   77.5508   0   0   0
        63       1       1   11.9560   12.5694   78.8337   0   0   0
        64       1       1   12.1762   13.5033   80.0654   0   0   0
        65       1       1   12.0171   12.7182   81.4229   0   0   0
        66       1       1   11.7374   13.5696   82.6413   0   0   0
        67       1       1   12.2848   12.9681   83.9230   0   0   0
        68       1       1   11.7589   13.7214   85.1968   0   0   0
        69       1       1   11.9945   12.8399   86.4369   0   0   0
        70       1       1   11.8879   13.5320   87.8237   0   0   0
        71       1       1   12.3881   12.7273   89.0221   0   0   0
        72       1       1   12.0843   13.5057   90.2630   0   0   0
        73       1       1   12.5929   12.9354   91.6465   0   0   0
        74       1       1   12.2459   13.7146   92.8937   0   0   0
        75       1       1   12.6270   13.0785   94.2193   0   0   0
        76       1       1   12.0400   13.8046   95.4835   0   0   0
        77       1       1   12.5441   13.1086   96.7216   0   0   0
        78       1       1   12.1734   13.7758   98.0995   0   0   0
        79       1       1   12.6882   12.9807   99.3564   0   0   0
        80       1       1   12.3019   13.7084  100.6920   0   0   0
        81       1       1   12.6969   12.8058  101.8430   0   0   0
        82       1       1   12.7247   13.5738  103.2530   0   0   0
        83       1       1   12.9371   12.6410  104.4870   0   0   0
        84       1       1   12.6741   13.3654  105.8470   0   0   0
        85       1       1   12.7203   12.4149  107.0850   0   0   0
        86       1       1   12.5817   13.1766  108.4350   0   0   0
        87       1       1   12.7395   12.1843  109.6340   0   0   0
        88       1       1   12.6514   12.8259  111.0370   0   0   0
        89       1       1   12.7250   11.7710  112.1670   0   0   0
        90       1       1   12.5574   12.4077  113.5820   0   0   0
        91       1       1   12.7533   11.4049  114.6950   0   0   0
        92       1       1   12.5558   12.0191  116.0840   0   0   0
        93       1       1   12.5043   11.0270  117.2880   0   0   0
        94       1       1   12.4318   11.7452  118.6440   0   0   0
        95       1       1   12.3377   10.8033  119.8390   0   0   0
        96       1       1   12.4528   11.4513  121.2330   0   0   0
        97       1       1   12.5062   10.3430  122.2850   0   0   0
        98       1       2   12.1760   10.8120  123.8580   0   0   0
        99       1       3    0.0000    0.0000  -24.1940   0   0   0
       100       1       3    1.9600    1.9600  -24.1940   0   0   0
       101       1       3    1.9600    0.0000  -22.2340   0   0   0
       102       1       3    0.0000    1.9600  -22.2340   0   0   0
       103       1       3    3.9200    0.0000  -24.1940   0   0   0
       104       1       3    5.8800    1.9600  -24.1940   0   0   0
       105       1       3    5.8800    0.0000  -22.2340   0   0   0
       106       1       3    3.9200    1.9600  -22.2340   0   0   0
       107       1       3    7.8400    0.0000  -24.1940   0   0   0
       108       1       3    9.8000    1.9600  -24.1940   0   0   0
       109       1       3    9.8000    0.0000  -22.2340   0   0   0
       110       1       3    7.8400    1.9600  -22.2340   0   0   0
       111       1       3   11.7600    0.0000  -24.1940   0   0   0
       112       1       3   13.7200    1.9600  -24.1940   0   0   0
       113       1       3   13.7200    0.0000  -22.2340   0   0   0
       114       1       3   11.7600    1.9600  -22.2340   0   0   0
       115       1       3   15.6800    0.0000  -24.1940   0   0   0
       116       1       3   17.6400    1.9600  -24.1940   0   0   0
       117       1       3   17.6400    0.0000  -22.2340   0   0   0
       118       1       3   15.6800    1.9600  -22.2340   0   0   0
       119       1       3   19.6000    0.0000  -24.1940   0   0   0
       120       1       3   21.5600    1.9600  -24.1940   0   0   0
       121       1       3   21.5600    0.0000  -22.2340   0   0   0
       122       1       3   19.6000    1.9600  -22.2340   0   0   0
       123       1       3    0.0000    3.9200  -24.1940   0   0   0
       124       1       3    1.9600    5.8800  -24.1940   0   0   0
       125       1       3    1.9600    3.9200  -22.2340   0   0   0
       126       1       3    0.0000    5.8800  -22.2340   0   0   0
       127       1       3    3.9200    3.9200  -24.1940   0   0   0
       128       1       3    5.8800    5.8800  -24.1940   0   0   0
       129       1       3    5.8800    3.9200  -22.2340   0   0   0
       130       1       3    3.9200    5.8800  -22.2340   0   0   0
       131       1       3    7.8400    3.9200  -24.1940   0   0   0
       132       1       3    9.8000    5.8800  -24.1940   0   0   0
       133       1       3    9.8000    3.9200  -22.2340   0   0   0
       134       1       3    7.8400    5.8800  -22.2340   0   0   0
       135       1       3   11.7600    3.9200  -24.1940   0   0   0
       136       1       3   13.7200    5.8800  -24.1940   0   0   0
       137       1       3   13.7200    3.9200  -22.2340   0   0   0
       138       1       3   11.7600    5.8800  -22.2340   0   0   0
       139       1       3   15.6800    3.9200  -24.1940   0   0   0
       140       1       3   17.6400    5.8800  -24.1940   0   0   0
       141       1       3   17.6400    3.9200  -22.2340   0   0   0
       142       1       3   15.6800    5.8800  -22.2340   0   0   0
       143       1       3   19.6000    3.9200  -24.1940   0   0   0
       144       1       3   21.5600    5.8800  -24.1940   0   0   0
       145       1       3   21.5600    3.9200  -22.2340   0   0   0
       146       1       3   19.6000    5.8800  -22.2340   0   0   0
       147       1       3    0.0000    7.8400  -24.1940   0   0   0
       148       1       3    1.9600    9.8000  -24.1940   0   0   0
       149       1       3    1.9600    7.8400  -22.2340   0   0   0
       150       1       3    0.0000    9.8000  -22.2340   0   0   0
       151       1       3    3.9200    7.8400  -24.1940   0   0   0
       152       1       3    5.8800    9.8000  -24.1940   0   0   0
       153       1       3    5.8800    7.8400  -22.2340   0   0   0
       154       1       3    3.9200    9.8000  -22.2340   0   0   0
       155       1       3    7.8400    7.8400  -24.1940   0   0   0
       156       1       3    9.8000    9.8000  -24.1940   0   0   0
       157       1       3    9.8000    7.8400  -22.2340   0   0   0
       158       1       3    7.8400    9.8000  -22.2340   0   0   0
       159       1       3   11.7600    7.8400  -24.1940   0   0   0
       160       1       3   13.7200    9.8000  -24.1940   0   0   0
       161       1       3   13.7200    7.8400  -22.2340   0   0   0
       162       1       3   11.7600    9.8000  -22.2340   0   0   0
       163       1       3   15.6800    7.8400  -24.1940   0   0   0
       164       1       3   17.6400    9.8000  -24.1940   0   0   0
       165       1       3   17.6400    7.8400  -22.2340   0   0   0
       166       1       3   15.6800    9.8000  -22.2340   0   0   0
       167       1       3   19.6000    7.8400  -24.1940   0   0   0
       168       1       3   21.5600    9.8000  -24.1940   0   0   0
       169       1       3   21.5600    7.8400  -22.2340   0   0   0
       170       1       3   19.6000    9.8000  -22.2340   0   0   0
       171       1       3    0.0000   11.7600  -24.1940   0   0   0
       172       1       3    1.9600   13.7200  -24.1940   0   0   0
       173       1       3    1.9600   11.7600  -22.2340   0   0   0
       174       1       3    0.0000   13.7200  -22.2340   0   0   0
       175       1       3    3.9200   11.7600  -24.1940   0   0   0
       176       1       3    5.8800   13.7200  -24.1940   0   0   0
       177       1       3    5.8800   11.7600  -22.2340   0   0   0
       178       1       3    3.9200   13.7200  -22.2340   0   0   0
       179       1       3    7.8400   11.7600  -24.1940   0   0   0
       180       1       3    9.8000   13.7200  -24.1940   0   0   0
       181       1       3    9.8000   11.7600  -22.2340   0   0   0
       182       1       3    7.8400   13.7200  -22.2340   0   0   0
       183       1       3   11.7600   11.7600  -24.1940   0   0   0
       184       1       3   13.7200   13.7200  -24.1940   0   0   0
       185       1       3   13.7200   11.7600  -22.2340   0   0   0
       186       1       3   11.7600   13.7200  -22.2340   0   0   0
       187       1       3   15.6800   11.7600  -24.1940   0   0   0
       188       1       3   17.6400   13.7200  -24.1940   0   0   0
       189       1       3   17.6400   11.7600  -22.2340   0   0   0
       190       1       3   15.6800   13.7200  -22.2340   0   0   0
       191       1       3   19.6000   11.7600  -24.1940   0   0   0
       192       1       3   21.5600   13.7200  -24.1940   0   0   0
       193       1       3   21.5600   11.7600  -22.2340   0   0   0
       194       1       3   19.6000   13.7200  -22.2340   0   0   0
       195       1       3    0.0000   15.6800  -24.1940   0   0   0
       196       1       3    1.9600   17.6400  -24.1940   0   0   0
       197       1       3    1.9600   15.6800  -22.2340   0   0   0
       198       1       3    0.0000   17.6400  -22.2340   0   0   0
       199       1       3    3.9200   15.6800  -24.1940   0   0   0
       200       1       3    5.8800   17.6400  -24.1940   0   0   0
       201       1       3    5.8800   15.6800  -22.2340   0   0   0
       202       1       3    3.9200   17.6400  -22.2340   0   0   0
       203       1       3    7.8400   15.6800  -24.1940   0   0   0
       204       1       3    9.8000   17.6400  -24.1940   0   0   0
       205       1       3    9.8000   15.6800  -22.2340   0   0   0
       206       1       3    7.8400   17.6400  -22.2340   0   0   0
       207       1       3   11.7600   15.6800  -24.1940   0   0   0
       208       1       3   13.7200   17.6400  -24.1940   0   0   0
       209       1       3   13.7200   15.6800  -22.2340   0   0   0
       210       1       3   11.7600   17.6400  -22.2340   0   0   0
       211       1       3   15.6800   15.6800  -24.1940   0   0   0
       212       1       3   17.6400   17.6400  -24.1940   0   0   0
       213       1       3   17.6400   15.6800  -22.2340   0   0   0
       214       1       3   15.6800   17.6400  -22.2340   0   0   0
       215       1       3   19.6000   15.6800  -24.1940   0   0   0
       216       1       3   21.5600   17.6400  -24.1940   0   0   0
       217       1       3   21.5600   15.6800  -22.2340   0   0   0
       218       1       3   19.6000   17.6400  -22.2340   0   0   0
       219       1       3    0.0000   19.6000  -24.1940   0   0   0
       220       1       3    1.9600   21.5600  -24.1940   0   0   0
       221       1       3    1.9600   19.6000  -22.2340   0   0   0
       222       1       3    0.0000   21.5600  -22.2340   0   0   0
       223       1       3    3.9200   19.6000  -24.1940   0   0   0
       224       1       3    5.8800   21.5600  -24.1940   0   0   0
       225       1       3    5.8800   19.6000  -22.2340   0   0   0
       226       1       3    3.9200   21.5600  -22.2340   0   0   0
       227       1       3    7.8400   19.6000  -24.1940   0   0   0
       228       1       3    9.8000   21.5600  -24.1940   0   0   0
       229       1       3    9.8000   19.6000  -22.2340   0   0   0
       230       1       3    7.8400   21.5600  -22.2340   0   0   0
       231       1       3   11.7600   19.6000  -24.1940   0   0   0
       232       1       3   13.7200   21.5600  -24.1940   0   0   0
       233       1       3   13.7200   19.6000  -22.2340   0   0   0
       234       1       3   11.7600   21.5600  -22.2340   0   0   0
       235       1       3   15.6800   19.6000  -24.1940   0   0   0
       236       1       3   17.6400   21.5600  -24.1940   0   0   0
       237       1       3   17.6400   19.6000  -22.2340   0   0   0
       238       1       3   15.6800   21.5600  -22.2340   0   0   0
       239       1       3   19.6000   19.6000  -24.1940   0   0   0
       240       1       3   21.5600   21.5600  -24.1940   0   0   0
       241       1       3   21.5600   19.6000  -22.2340   0   0   0
       242       1       3   19.6000   21.5600  -22.2340   0   0   0
       243       1       3    0.0000    0.0000  -20.2740   0   0   0
       244       1       3    1.9600    1.9600  -20.2740   0   0   0
       245       1       3    1.9600    0.0000  -18.3140   0   0   0
       246       1       3    0.0000    1.9600  -18.3140   0   0   0
       247       1       3    3.9200    0.0000  -20.2740   0   0   0
       248       1       3    5.8800    1.9600  -20.2740   0   0   0
       249       1       3    5.8800    0.0000  -18.3140   0   0   0
       250       1       3    3.9200    1.9600  -18.3140   0   0   0
       251       1       3    7.8400    0.0000  -20.2740   0   0   0
       252       1       3    9.8000    1.9600  -20.2740   0   0   0
       253       1       3    9.8000    0.0000  -18.3140   0   0   0
       254       1       3    7.8400    1.9600  -18.3140   0   0   0
       255       1       3   11.7600    0.0000  -20.2740   0   0   0
       256       1       3   13.7200    1.9600  -20.2740   0   0   0
       257       1       3   13.7200    0.0000  -18.3140   0   0   0
       258       1       3   11.7600    1.9600  -18.3140   0   0   0
       259       1       3   15.6800    0.0000  -20.2740   0   0   0
       260       1       3   17.6400    1.9600  -20.2740   0   0   0
       261       1       3   17.6400    0.0000  -18.3140   0   0   0
       262       1       3   15.6800    1.9600  -18.3140   0   0   0
       263       1       3   19.6000    0.0000  -20.2740   0   0   0
       264       1       3   21.5600    1.9600  -20.2740   0   0   0
       265       1       3   21.5600    0.0000  -18.3140   0   0   0
       266       1       3   19.6000    1.9600  -18.3140   0   0   0
       267       1       3    0.0000    3.9200  -20.2740   0   0   0
       268       1       3    1.9600    5.8800  -20.2740   0   0   0
       269       1       3    1.9600    3.9200  -18.3140   0   0   0
       270       1       3    0.0000    5.8800  -18.3140   0   0   0
       271       1       3    3.9200    3.9200  -20.2740   0   0   0
       272       1       3    5.8800    5.8800  -20.2740   0   0   0
       273       1       3    5.8800    3.9200  -18.3140   0   0   0
       274       1       3    3.9200    5.8800  -18.3140   0   0   0
       275       1       3    7.8400    3.9200  -20.2740   0   0   0
       276       1       3    9.8000    5.8800  -20.2740   0   0   0
       277       1       3    9.8000    3.9200  -18.3140   0   0   0
       278       1       3    7.8400    5.8800  -18.3140   0   0   0
       279       1       3   11.7600    3.9200  -20.2740   0   0   0
       280       1       3   13.7200    5.8800  -20.2740   0   0   0
       281       1       3   13.7200    3.9200  -18.3140   0   0   0
       282       1       3   11.7600    5.8800  -18.3140   0   0   0
       283       1       3   15.6800    3.9200  -20.2740   0   0   0
       284       1       3   17.6400    5.8800  -20.2740   0   0   0
       285       1       3   17.6400    3.9200  -18.3140   0   0   0
       286       1       3   15.6800    5.8800  -18.3140   0   0   0
       287       1       3   19.6000    3.9200  -20.2740   0   0   0
       288       1       3   21.5600    5.8800  -20.2740   0   0   0
       289       1       3   21.5600    3.9200  -18.3140   0   0   0
       290       1       3   19.6000    5.8800  -18.3140   0   0   0
       291       1       3    0.0000    7.8400  -20.2740   0   0   0
       292       1       3    1.9600    9.8000  -20.2740   0   0   0
       293       1       3    1.9600    7.8400  -18.3140   0   0   0
       294       1       3    0.0000    9.8000  -18.3140   0   0   0
       295       1       3    3.9200    7.8400  -20.2740   0   0   0
       296       1       3    5.8800    9.8000  -20.2740   0   0   0
       297       1       3    5.8800    7.8400  -18.3140   0   0   0
       298       1       3    3.9200    9.8000  -18.3140   0   0   0
       299       1       3    7.8400    7.8400  -20.2740   0   0   0
       300       1       3    9.8000    9.8000  -20.2740   0   0   0
       301       1       3    9.8000    7.8400  -18.3140   0   0   0
       302       1       3    7.8400    9.8000  -18.3140   0   0   0
       303       1       3   11.7600    7.8400  -20.2740   0   0   0
       304       1       3   13.7200    9.8000  -20.2740   0   0   0
       305       1       3   13.7200    7.8400  -18.3140   0   0   0
       306       1       3   11.7600    9.8000  -18.3140   0   0   0
       307       1       3   15.6800    7.8400  -20.2740   0   0   0
       308       1       3   17.6400    9.8000  -20.2740   0   0   0
       309       1       3   17.6400    7.8400  -18.3140   0   0   0
       310       1       3   15.6800    9.8000  -18.3140   0   0   0
       311       1       3   19.6000    7.8400  -20.2740   0   0   0
       312       1       3   21.5600    9.8000  -20.2740   0   0   0
       313       1       3   21.5600    7.8400  -18.3140   0   0   0
       314       1       3   19.6000    9.8000  -18.3140   0   0   0
       315       1       3    0.0000   11.7600  -20.2740   0   0   0
       316       1       3    1.9600   13.7200  -20.2740   0   0   0
       317       1       3    1.9600   11.7600  -18.3140   0   0   0
       318       1       3    0.0000   13.7200  -18.3140   0   0   0
       319       1       3    3.9200   11.7600  -20.2740   0   0   0
       320       1       3    5.8800   13.7200  -20.2740   0   0   0
       321       1       3    5.8800   11.7600  -18.3140   0   0   0
       322       1       3    3.9200   13.7200  -18.3140   0   0   0
       323       1       3    7.8400   11.7600  -20.2740   0   0   0
       324       1       3    9.8000   13.7200  -20.2740   0   0   0
       325       1       3    9.8000   11.7600  -18.3140   0   0   0
       326       1       3    7.8400   13.7200  -18.3140   0   0   0
       327       1       3   11.7600   11.7600  -20.2740   0   0   0
       328       1       3   13.7200   13.7200  -20.2740   0   0   0
       329       1       3   13.7200   11.7600  -18.3140   0   0   0
       330       1       3   11.7600   13.7200  -18.3140   0   0   0
       331       1       3   15.6800   11.7600  -20.2740   0   0   0
       332       1       3   17.6400   13.7200  -20.2740   0   0   0
       333       1       3   17.6400   11.7600  -18.3140   0   0   0
       334       1       3   15.6800   13.7200  -18.3140   0   0   0
       335       1       3   19.6000   11.7600  -20.2740   0   0   0
       336       1       3   21.5600   13.7200  -20.2740   0   0   0
       337       1       3   21.5600   11.7600  -18.3140   0   0   0
       338       1       3   19.6000   13.7200  -18.3140   0   0   0
       339       1       3    0.0000   15.6800  -20.2740   0   0   0
       340       1       3    1.9600   17.6400  -20.2740   0   0   0
       341       1       3    1.9600   15.6800  -18.3140   0   0   0
       342       1       3    0.0000   17.6400  -18.3140   0   0   0
       343       1       3    3.9200   15.6800  -20.2740   0   0   0
       344       1       3    5.8800   17.6400  -20.2740   0   0   0
       345       1       3    5.8800   15.6800  -18.3140   0   0   0
       346       1       3    3.9200   17.6400  -18.3140   0   0   0
       347       1       3    7.8400   15.6800  -20.2740   0   0   0
       348       1       3    9.8000   17.6400  -20.2740   0   0   0
       349       1       3    9.8000   15.6800  -18.3140   0   0   0
       350       1       3    7.8400   17.6400  -18.3140   0   0   0
       351       1       3   11.7600   15.6800  -20.2740   0   0   0
       352       1       3   13.7200   17.6400  -20.2740   0   0   0
       353       1       3   13.7200   15.6800  -18.3140   0   0   0
       354       1       3   11.7600   17.6400  -18.3140   0   0   0
       355       1       3   15.6800   15.6800  -20.2740   0   0   0
       356       1       3   17.6400   17.6400  -20.2740   0   0   0
       357       1       3   17.6400   15.6800  -18.3140   0   0   0
       358       1       3   15.6800   17.6400  -18.3140   0   0   0
       359       1       3   19.6000   15.6800  -20.2740   0   0   0
       360       1       3   21.5600   17.6400  -20.2740   0   0   0
       361       1       3   21.5600   15.6800  -18.3140   0   0   0
       362       1       3   19.6000   17.6400  -18.3140   0   0   0
       363       1       3    0.0000   19.6000  -20.2740   0   0   0
       364       1       3    1.9600   21.5600  -20.2740   0   0   0
       365       1       3    1.9600   19.6000  -18.3140   0   0   0
       366       1       3    0.0000   21.5600  -18.3140   0   0   0
       367       1       3    3.9200   19.6000  -20.2740   0   0   0
       368       1       3    5.8800   21.5600  -20.2740   0   0   0
       369       1       3    5.8800   19.6000  -18.3140   0   0   0
       370       1       3    3.9200   21.5600  -18.3140   0   0   0
       371       1       3    7.8400   19.6000  -20.2740   0   0   0
       372       1       3    9.8000   21.5600  -20.2740   0   0   0
       373       1       3    9.8000   19.6000  -18.3140   0   0   0
       374       1       3    7.8400   21.5600  -18.3140   0   0   0
       375       1       3   11.7600   19.6000  -20.2740   0   0   0
       376       1       3   13.7200   21.5600  -20.2740   0   0   0
       377       1       3   13.7200   19.6000  -18.3140   0   0   0
       378       1       3   11.7600   21.5600  -18.3140   0   0   0
       379       1       3   15.6800   19.6000  -20.2740   0   0   0
       380       1       3   17.6400   21.5600  -20.2740   0   0   0
       381       1       3   17.6400   19.6000  -18.3140   0   0   0
       382       1       3   15.6800   21.5600  -18.3140   0   0   0
       383       1       3   19.6000   19.6000  -20.2740   0   0   0
       384       1       3   21.5600   21.5600  -20.2740   0   0   0
       385       1       3   21.5600   19.6000  -18.3140   0   0   0
       386       1       3   19.6000   21.5600  -18.3140   0   0   0
       387       1       3    0.0000    0.0000  -16.3540   0   0   0
       388       1       3    1.9600    1.9600  -16.3540   0   0   0
       389       1       3    1.9600    0.0000  -14.3940   0   0   0
       390       1       3    0.0000    1.9600  -14.3940   0   0   0
       391       1       3    3.9200    0.0000  -16.3540   0   0   0
       392       1       3    5.8800    1.9600  -16.3540   0   0   0
       393       1       3    5.8800    0.0000  -14.3940   0   0   0
       394       1       3    3.9200    1.9600  -14.3940   0   0   0
       395       1       3    7.8400    0.0000  -16.3540   0   0   0
       396       1       3    9.8000    1.9600  -16.3540   0   0   0
       397       1       3    9.8000    0.0000  -14.3940   0   0   0
       398       1       3    7.8400    1.9600  -14.3940   0   0   0
       399       1       3   11.7600    0.0000  -16.3540   0   0   0
       400       1       3   13.7200    1.9600  -16.3540   0   0   0
       401       1       3   13.7200    0.0000  -14.3940   0   0   0
       402       1       3   11.7600    1.9600  -14.3940   0   0   0
       403       1       3   15.6800    0.0000  -16.3540   0   0   0
       404       1       3   17.6400    1.9600  -16.3540   0   0   0
       405       1       3   17.6400    0.0000  -14.3940   0   0   0
       406       1       3   15.6800    1.9600  -14.3940   0   0   0
       407       1       3   19.6000    0.0000  -16.3540   0   0   0
       408       1       3   21.5600    1.9600  -16.3540   0   0   0
       409       1       3   21.5600    0.0000  -14.3940   0   0   0
       410       1       3   19.6000    1.9600  -14.3940   0   0   0
       411       1       3    0.0000    3.9200  -16.3540   0   0   0
       412       1       3    1.9600    5.8800  -16.3540   0   0   0
       413       1       3    1.9600    3.9200  -14.3940   0   0   0
       414       1       3    0.0000    5.8800  -14.3940   0   0   0
       415       1       3    3.9200    3.9200  -16.3540   0   0   0
       416       1       3    5.8800    5.8800  -16.3540   0   0   0
       417       1       3    5.8800    3.9200  -14.3940   0   0   0
       418       1       3    3.9200    5.8800  -14.3940   0   0   0
       419       1       3    7.8400    3.9200  -16.3540   0   0   0
       420       1       3    9.8000    5.8800  -16.3540   0   0   0
       421       1       3    9.8000    3.9200  -14.3940   0   0   0
       422       1       3    7.8400    5.8800  -14.3940   0   0   0
       423       1       3   11.7600    3.9200  -16.3540   0   0   0
       424       1       3   13.7200    5.8800  -16.3540   0   0   0
       425       1       3   13.7200    3.9200  -14.3940   0   0   0
       426       1       3   11.7600    5.8800  -14.3940   0   0   0
       427       1       3   15.6800    3.9200  -16.3540   0   0   0
       428       1       3   17.6400    5.8800  -16.3540   0   0   0