LAMMPS UA chain data file
 
        2258  atoms
         241  bonds
          96  angles
          95  dihedrals
           0  impropers
 
           4  atom types
           3  bond types
           2  angle types
           1  dihedral types
           0  improper types
 
    0.000000      20.000000 xlo xhi
    0.000000      20.000000 ylo yhi
    -28.5000      115.30000 zlo zhi
 
Masses
 
  1   14.00
  2   32.06
  3   63.55
  4   63.55
 
Atoms
 
         1       1       2    9.9412    9.9412    0.0000   0   0   0
         2       1       1    9.3562    9.7832    1.0224   0   0   0
         3       1       1   10.1112    8.9339    1.7455   0   0   0
         4       1       1    9.4685    8.7440    2.7374   0   0   0
         5       1       1   10.2582    7.9879    3.5055   0   0   0
         6       1       1    9.6059    8.1906    4.4522   0   0   0
         7       1       1   10.0718    7.3980    5.3396   0   0   0
         8       1       1    9.3155    7.7756    6.2109   0   0   0
         9       1       1    9.9149    7.0980    7.0832   0   0   0
        10       1       1    9.5693    7.8207    7.9923   0   0   0
        11       1       1   10.0317    6.9084    8.7763   0   0   0
        12       1       1    9.5688    7.4891    9.7635   0   0   0
        13       1       1    9.7582    6.6936   10.6915   0   0   0
        14       1       1    9.2875    7.6295   11.4761   0   0   0
        15       1       1    9.1101    6.8542   12.3912   0   0   0
        16       1       1    9.2965    7.7261   13.2306   0   0   0
        17       1       1    9.3516    6.8809   14.1282   0   0   0
        18       1       1    9.6021    7.8315   14.9921   0   0   0
        19       1       1    9.3537    7.0100   15.9057   0   0   0
        20       1       1    9.2485    7.8890   16.7879   0   0   0
        21       1       1    9.3924    7.0978   17.6951   0   0   0
        22       1       1    9.5328    8.0140   18.5629   0   0   0
        23       1       1    9.7076    7.3216   19.4757   0   0   0
        24       1       1    9.5098    8.1608   20.3625   0   0   0
        25       1       1    9.7353    7.4387   21.2869   0   0   0
        26       1       1    9.4706    8.4606   22.0788   0   0   0
        27       1       1    9.8550    7.8113   23.0206   0   0   0
        28       1       1    9.6416    8.6752   23.9037   0   0   0
        29       1       1   10.4497    8.3673   24.7369   0   0   0
        30       1       1    9.8225    8.9552   25.6283   0   0   0
        31       1       1   10.3260    8.2209   26.5443   0   0   0
        32       1       1    9.8058    8.9128   27.4676   0   0   0
        33       1       1   10.1658    8.2469   28.3643   0   0   0
        34       1       1    9.8414    9.2307   29.1732   0   0   0
        35       1       1   10.2725    8.5803   30.0814   0   0   0
        36       1       1    9.9379    9.5078   30.9489   0   0   0
        37       1       1   10.1965    8.8103   31.8870   0   0   0
        38       1       1    9.9356    9.7164   32.7395   0   0   0
        39       1       1   10.3400    9.0101   33.6928   0   0   0
        40       1       1   10.2233    9.8908   34.5227   0   0   0
        41       1       1   10.6264    9.2324   35.4598   0   0   0
        42       1       1   10.6211   10.1819   36.2858   0   0   0
        43       1       1   10.6818    9.5330   37.2592   0   0   0
        44       1       1   10.6757   10.5784   38.0643   0   0   0
        45       1       1   10.6441   10.0795   39.0761   0   0   0
        46       1       1   10.8182   11.1391   39.8378   0   0   0
        47       1       1   10.7610   10.4629   40.7655   0   0   0
        48       1       1   10.6631   11.3241   41.6791   0   0   0
        49       1       1   10.6726   10.5424   42.6285   0   0   0
        50       1       1   10.6968   11.4176   43.5294   0   0   0
        51       1       1   10.9190   10.7380   44.4788   0   0   0
        52       1       1   10.2704   11.5920   45.2485   0   0   0
        53       1       1   10.5350   11.0027   46.2180   0   0   0
        54       1       1   10.2722   11.9139   47.0413   0   0   0
        55       1       1   10.4536   11.2324   48.0063   0   0   0
        56       1       1   10.1212   12.1780   48.7669   0   0   0
        57       1       1   10.3238   11.4670   49.6986   0   0   0
        58       1       1   10.4774   12.3614   50.5701   0   0   0
        59       1       1   10.3933   11.6462   51.5519   0   0   0
        60       1       1   10.4886   12.4874   52.4647   0   0   0
        61       1       1   10.6682   11.7830   53.4055   0   0   0
        62       1       1   10.7923   12.6188   54.2856   0   0   0
        63       1       1   11.1173   11.7306   55.1836   0   0   0
        64       1       1   11.3374   12.6645   56.0458   0   0   0
        65       1       1   11.1784   11.8794   56.9960   0   0   0
        66       1       1   10.8987   12.7308   57.8489   0   0   0
        67       1       1   11.4460   12.1293   58.7461   0   0   0
        68       1       1   10.9202   12.8827   59.6378   0   0   0
        69       1       1   11.1557   12.0011   60.5058   0   0   0
        70       1       1   11.0492   12.6933   61.4766   0   0   0
        71       1       1   11.5493   11.8886   62.3155   0   0   0
        72       1       1   11.2455   12.6669   63.1841   0   0   0
        73       1       1   11.7541   12.0967   64.1525   0   0   0
        74       1       1   11.4071   12.8759   65.0256   0   0   0
        75       1       1   11.7883   12.2397   65.9535   0   0   0
        76       1       1   11.2013   12.9659   66.8384   0   0   0
        77       1       1   11.7054   12.2699   67.7051   0   0   0
        78       1       1   11.3347   12.9370   68.6697   0   0   0
        79       1       1   11.8494   12.1420   69.5495   0   0   0
        80       1       1   11.4632   12.8697   70.4844   0   0   0
        81       1       1   11.8582   11.9670   71.2901   0   0   0
        82       1       1   11.8860   12.7351   72.2771   0   0   0
        83       1       1   12.0983   11.8023   73.1409   0   0   0
        84       1       1   11.8353   12.5267   74.0929   0   0   0
        85       1       1   11.8816   11.5762   74.9595   0   0   0
        86       1       1   11.7429   12.3379   75.9045   0   0   0
        87       1       1   11.9007   11.3455   76.7438   0   0   0
        88       1       1   11.8126   11.9872   77.7259   0   0   0
        89       1       1   11.8863   10.9323   78.5169   0   0   0
        90       1       1   11.7187   11.5690   79.5074   0   0   0
        91       1       1   11.9146   10.5662   80.2865   0   0   0
        92       1       1   11.7170   11.1804   81.2588   0   0   0
        93       1       1   11.6656   10.1882   82.1016   0   0   0
        94       1       1   11.5930   10.9065   83.0508   0   0   0
        95       1       1   11.4990    9.9645   83.8873   0   0   0
        96       1       1   11.6140   10.6125   84.8631   0   0   0
        97       1       1   11.6675    9.5043   85.5995   0   0   0
        98       1       2   11.3372    9.9732   86.7006   0   0   0
        99       1       3    0.0000    0.0000  -26.1315   0   0   0
       100       1       3    1.8075    1.8075  -26.1315   0   0   0
       101       1       3    1.8075    0.0000  -24.3240   0   0   0
       102       1       3    0.0000    1.8075  -24.3240   0   0   0
       103       1       3    3.6150    0.0000  -26.1315   0   0   0
       104       1       3    5.4225    1.8075  -26.1315   0   0   0
       105       1       3    5.4225    0.0000  -24.3240   0   0   0
       106       1       3    3.6150    1.8075  -24.3240   0   0   0
       107       1       3    7.2300    0.0000  -26.1315   0   0   0
       108       1       3    9.0375    1.8075  -26.1315   0   0   0
       109       1       3    9.0375    0.0000  -24.3240   0   0   0
       110       1       3    7.2300    1.8075  -24.3240   0   0   0
       111       1       3   10.8450    0.0000  -26.1315   0   0   0
       112       1       3   12.6525    1.8075  -26.1315   0   0   0
       113       1       3   12.6525    0.0000  -24.3240   0   0   0
       114       1       3   10.8450    1.8075  -24.3240   0   0   0
       115       1       3   14.4600    0.0000  -26.1315   0   0   0
       116       1       3   16.2675    1.8075  -26.1315   0   0   0
       117       1       3   16.2675    0.0000  -24.3240   0   0   0
       118       1       3   14.4600    1.8075  -24.3240   0   0   0
       119       1       3   18.0750    0.0000  -26.1315   0   0   0
       120       1       3   19.8825    1.8075  -26.1315   0   0   0
       121       1       3   19.8825    0.0000  -24.3240   0   0   0
       122       1       3   18.0750    1.8075  -24.3240   0   0   0
       123       1       3    0.0000    3.6150  -26.1315   0   0   0
       124       1       3    1.8075    5.4225  -26.1315   0   0   0
       125       1       3    1.8075    3.6150  -24.3240   0   0   0
       126       1       3    0.0000    5.4225  -24.3240   0   0   0
       127       1       3    3.6150    3.6150  -26.1315   0   0   0
       128       1       3    5.4225    5.4225  -26.1315   0   0   0
       129       1       3    5.4225    3.6150  -24.3240   0   0   0
       130       1       3    3.6150    5.4225  -24.3240   0   0   0
       131       1       3    7.2300    3.6150  -26.1315   0   0   0
       132       1       3    9.0375    5.4225  -26.1315   0   0   0
       133       1       3    9.0375    3.6150  -24.3240   0   0   0
       134       1       3    7.2300    5.4225  -24.3240   0   0   0
       135       1       3   10.8450    3.6150  -26.1315   0   0   0
       136       1       3   12.6525    5.4225  -26.1315   0   0   0
       137       1       3   12.6525    3.6150  -24.3240   0   0   0
       138       1       3   10.8450    5.4225  -24.3240   0   0   0
       139       1       3   14.4600    3.6150  -26.1315   0   0   0
       140       1       3   16.2675    5.4225  -26.1315   0   0   0
       141       1       3   16.2675    3.6150  -24.3240   0   0   0
       142       1       3   14.4600    5.4225  -24.3240   0   0   0
       143       1       3   18.0750    3.6150  -26.1315   0   0   0
       144       1       3   19.8825    5.4225  -26.1315   0   0   0
       145       1       3   19.8825    3.6150  -24.3240   0   0   0
       146       1       3   18.0750    5.4225  -24.3240   0   0   0
       147       1       3    0.0000    7.2300  -26.1315   0   0   0
       148       1       3    1.8075    9.0375  -26.1315   0   0   0
       149       1       3    1.8075    7.2300  -24.3240   0   0   0
       150       1       3    0.0000    9.0375  -24.3240   0   0   0
       151       1       3    3.6150    7.2300  -26.1315   0   0   0
       152       1       3    5.4225    9.0375  -26.1315   0   0   0
       153       1       3    5.4225    7.2300  -24.3240   0   0   0
       154       1       3    3.6150    9.0375  -24.3240   0   0   0
       155       1       3    7.2300    7.2300  -26.1315   0   0   0
       156       1       3    9.0375    9.0375  -26.1315   0   0   0
       157       1       3    9.0375    7.2300  -24.3240   0   0   0
       158       1       3    7.2300    9.0375  -24.3240   0   0   0
       159       1       3   10.8450    7.2300  -26.1315   0   0   0
       160       1       3   12.6525    9.0375  -26.1315   0   0   0
       161       1       3   12.6525    7.2300  -24.3240   0   0   0
       162       1       3   10.8450    9.0375  -24.3240   0   0   0
       163       1       3   14.4600    7.2300  -26.1315   0   0   0
       164       1       3   16.2675    9.0375  -26.1315   0   0   0
       165       1       3   16.2675    7.2300  -24.3240   0   0   0
       166       1       3   14.4600    9.0375  -24.3240   0   0   0
       167       1       3   18.0750    7.2300  -26.1315   0   0   0
       168       1       3   19.8825    9.0375  -26.1315   0   0   0
       169       1       3   19.8825    7.2300  -24.3240   0   0   0
       170       1       3   18.0750    9.0375  -24.3240   0   0   0
       171       1       3    0.0000   10.8450  -26.1315   0   0   0
       172       1       3    1.8075   12.6525  -26.1315   0   0   0
       173       1       3    1.8075   10.8450  -24.3240   0   0   0
       174       1       3    0.0000   12.6525  -24.3240   0   0   0
       175       1       3    3.6150   10.8450  -26.1315   0   0   0
       176       1       3    5.4225   12.6525  -26.1315   0   0   0
       177       1       3    5.4225   10.8450  -24.3240   0   0   0
       178       1       3    3.6150   12.6525  -24.3240   0   0   0
       179       1       3    7.2300   10.8450  -26.1315   0   0   0
       180       1       3    9.0375   12.6525  -26.1315   0   0   0
       181       1       3    9.0375   10.8450  -24.3240   0   0   0
       182       1       3    7.2300   12.6525  -24.3240   0   0   0
       183       1       3   10.8450   10.8450  -26.1315   0   0   0
       184       1       3   12.6525   12.6525  -26.1315   0   0   0
       185       1       3   12.6525   10.8450  -24.3240   0   0   0
       186       1       3   10.8450   12.6525  -24.3240   0   0   0
       187       1       3   14.4600   10.8450  -26.1315   0   0   0
       188       1       3   16.2675   12.6525  -26.1315   0   0   0
       189       1       3   16.2675   10.8450  -24.3240   0   0   0
       190       1       3   14.4600   12.6525  -24.3240   0   0   0
       191       1       3   18.0750   10.8450  -26.1315   0   0   0
       192       1       3   19.8825   12.6525  -26.1315   0   0   0
       193       1       3   19.8825   10.8450  -24.3240   0   0   0
       194       1       3   18.0750   12.6525  -24.3240   0   0   0
       195       1       3    0.0000   14.4600  -26.1315   0   0   0
       196       1       3    1.8075   16.2675  -26.1315   0   0   0
       197       1       3    1.8075   14.4600  -24.3240   0   0   0
       198       1       3    0.0000   16.2675  -24.3240   0   0   0
       199       1       3    3.6150   14.4600  -26.1315   0   0   0
       200       1       3    5.4225   16.2675  -26.1315   0   0   0
       201       1       3    5.4225   14.4600  -24.3240   0   0   0
       202       1       3    3.6150   16.2675  -24.3240   0   0   0
       203       1       3    7.2300   14.4600  -26.1315   0   0   0
       204       1       3    9.0375   16.2675  -26.1315   0   0   0
       205       1       3    9.0375   14.4600  -24.3240   0   0   0
       206       1       3    7.2300   16.2675  -24.3240   0   0   0
       207       1       3   10.8450   14.4600  -26.1315   0   0   0
       208       1       3   12.6525   16.2675  -26.1315   0   0   0
       209       1       3   12.6525   14.4600  -24.3240   0   0   0
       210       1       3   10.8450   16.2675  -24.3240   0   0   0
       211       1       3   14.4600   14.4600  -26.1315   0   0   0
       212       1       3   16.2675   16.2675  -26.1315   0   0   0
       213       1       3   16.2675   14.4600  -24.3240   0   0   0
       214       1       3   14.4600   16.2675  -24.3240   0   0   0
       215       1       3   18.0750   14.4600  -26.1315   0   0   0
       216       1       3   19.8825   16.2675  -26.1315   0   0   0
       217       1       3   19.8825   14.4600  -24.3240   0   0   0
       218       1       3   18.0750   16.2675  -24.3240   0   0   0
       219       1       3    0.0000   18.0750  -26.1315   0   0   0
       220       1       3    1.8075   19.8825  -26.1315   0   0   0
       221       1       3    1.8075   18.0750  -24.3240   0   0   0
       222       1       3    0.0000   19.8825  -24.3240   0   0   0
       223       1       3    3.6150   18.0750  -26.1315   0   0   0
       224       1       3    5.4225   19.8825  -26.1315   0   0   0
       225       1       3    5.4225   18.0750  -24.3240   0   0   0
       226       1       3    3.6150   19.8825  -24.3240   0   0   0
       227       1       3    7.2300   18.0750  -26.1315   0   0   0
       228       1       3    9.0375   19.8825  -26.1315   0   0   0
       229       1       3    9.0375   18.0750  -24.3240   0   0   0
       230       1       3    7.2300   19.8825  -24.3240   0   0   0
       231       1       3   10.8450   18.0750  -26.1315   0   0   0
       232       1       3   12.6525   19.8825  -26.1315   0   0   0
       233       1       3   12.6525   18.0750  -24.3240   0   0   0
       234       1       3   10.8450   19.8825  -24.3240   0   0   0
       235       1       3   14.4600   18.0750  -26.1315   0   0   0
       236       1       3   16.2675   19.8825  -26.1315   0   0   0
       237       1       3   16.2675   18.0750  -24.3240   0   0   0
       238       1       3   14.4600   19.8825  -24.3240   0   0   0
       239       1       3   18.0750   18.0750  -26.1315   0   0   0
       240       1       3   19.8825   19.8825  -26.1315   0   0   0
       241       1       3   19.8825   18.0750  -24.3240   0   0   0
       242       1       3   18.0750   19.8825  -24.3240   0   0   0
       243       1       3    0.0000    0.0000  -22.5165   0   0   0
       244       1       3    1.8075    1.8075  -22.5165   0   0   0
       245       1       3    1.8075    0.0000  -20.7090   0   0   0
       246       1       3    0.0000    1.8075  -20.7090   0   0   0
       247       1       3    3.6150    0.0000  -22.5165   0   0   0
       248       1       3    5.4225    1.8075  -22.5165   0   0   0
       249       1       3    5.4225    0.0000  -20.7090   0   0   0
       250       1       3    3.6150    1.8075  -20.7090   0   0   0
       251       1       3    7.2300    0.0000  -22.5165   0   0   0
       252       1       3    9.0375    1.8075  -22.5165   0   0   0
       253       1       3    9.0375    0.0000  -20.7090   0   0   0
       254       1       3    7.2300    1.8075  -20.7090   0   0   0
       255       1       3   10.8450    0.0000  -22.5165   0   0   0
       256       1       3   12.6525    1.8075  -22.5165   0   0   0
       257       1       3   12.6525    0.0000  -20.7090   0   0   0
       258       1       3   10.8450    1.8075  -20.7090   0   0   0
       259       1       3   14.4600    0.0000  -22.5165   0   0   0
       260       1       3   16.2675    1.8075  -22.5165   0   0   0
       261       1       3   16.2675    0.0000  -20.7090   0   0   0
       262       1       3   14.4600    1.8075  -20.7090   0   0   0
       263       1       3   18.0750    0.0000  -22.5165   0   0   0
       264       1       3   19.8825    1.8075  -22.5165   0   0   0
       265       1       3   19.8825    0.0000  -20.7090   0   0   0
       266       1       3   18.0750    1.8075  -20.7090   0   0   0
       267       1       3    0.0000    3.6150  -22.5165   0   0   0
       268       1       3    1.8075    5.4225  -22.5165   0   0   0
       269       1       3    1.8075    3.6150  -20.7090   0   0   0
       270       1       3    0.0000    5.4225  -20.7090   0   0   0
       271       1       3    3.6150    3.6150  -22.5165   0   0   0
       272       1       3    5.4225    5.4225  -22.5165   0   0   0
       273       1       3    5.4225    3.6150  -20.7090   0   0   0
       274       1       3    3.6150    5.4225  -20.7090   0   0   0
       275       1       3    7.2300    3.6150  -22.5165   0   0   0
       276       1       3    9.0375    5.4225  -22.5165   0   0   0
       277       1       3    9.0375    3.6150  -20.7090   0   0   0
       278       1       3    7.2300    5.4225  -20.7090   0   0   0
       279       1       3   10.8450    3.6150  -22.5165   0   0   0
       280       1       3   12.6525    5.4225  -22.5165   0   0   0
       281       1       3   12.6525    3.6150  -20.7090   0   0   0
       282       1       3   10.8450    5.4225  -20.7090   0   0   0
       283       1       3   14.4600    3.6150  -22.5165   0   0   0
       284       1       3   16.2675    5.4225  -22.5165   0   0   0
       285       1       3   16.2675    3.6150  -20.7090   0   0   0
       286       1       3   14.4600    5.4225  -20.7090   0   0   0
       287       1       3   18.0750    3.6150  -22.5165   0   0   0
       288       1       3   19.8825    5.4225  -22.5165   0   0   0
       289       1       3   19.8825    3.6150  -20.7090   0   0   0
       290       1       3   18.0750    5.4225  -20.7090   0   0   0
       291       1       3    0.0000    7.2300  -22.5165   0   0   0
       292       1       3    1.8075    9.0375  -22.5165   0   0   0
       293       1       3    1.8075    7.2300  -20.7090   0   0   0
       294       1       3    0.0000    9.0375  -20.7090   0   0   0
       295       1       3    3.6150    7.2300  -22.5165   0   0   0
       296       1       3    5.4225    9.0375  -22.5165   0   0   0
       297       1       3    5.4225    7.2300  -20.7090   0   0   0
       298       1       3    3.6150    9.0375  -20.7090   0   0   0
       299       1       3    7.2300    7.2300  -22.5165   0   0   0
       300       1       3    9.0375    9.0375  -22.5165   0   0   0
       301       1       3    9.0375    7.2300  -20.7090   0   0   0
       302       1       3    7.2300    9.0375  -20.7090   0   0   0
       303       1       3   10.8450    7.2300  -22.5165   0   0   0
       304       1       3   12.6525    9.0375  -22.5165   0   0   0
       305       1       3   12.6525    7.2300  -20.7090   0   0   0
       306       1       3   10.8450    9.0375  -20.7090   0   0   0
       307       1       3   14.4600    7.2300  -22.5165   0   0   0
       308       1       3   16.2675    9.0375  -22.5165   0   0   0
       309       1       3   16.2675    7.2300  -20.7090   0   0   0
       310       1       3   14.4600    9.0375  -20.7090   0   0   0
       311       1       3   18.0750    7.2300  -22.5165   0   0   0
       312       1       3   19.8825    9.0375  -22.5165   0   0   0
       313       1       3   19.8825    7.2300  -20.7090   0   0   0
       314       1       3   18.0750    9.0375  -20.7090   0   0   0
       315       1       3    0.0000   10.8450  -22.5165   0   0   0
       316       1       3    1.8075   12.6525  -22.5165   0   0   0
       317       1       3    1.8075   10.8450  -20.7090   0   0   0
       318       1       3    0.0000   12.6525  -20.7090   0   0   0
       319       1       3    3.6150   10.8450  -22.5165   0   0   0
       320       1       3    5.4225   12.6525  -22.5165   0   0   0
       321       1       3    5.4225   10.8450  -20.7090   0   0   0
       322       1       3    3.6150   12.6525  -20.7090   0   0   0
       323       1       3    7.2300   10.8450  -22.5165   0   0   0
       324       1       3    9.0375   12.6525  -22.5165   0   0   0
       325       1       3    9.0375   10.8450  -20.7090   0   0   0
       326       1       3    7.2300   12.6525  -20.7090   0   0   0
       327       1       3   10.8450   10.8450  -22.5165   0   0   0
       328       1       3   12.6525   12.6525  -22.5165   0   0   0
       329       1       3   12.6525   10.8450  -20.7090   0   0   0
       330       1       3   10.8450   12.6525  -20.7090   0   0   0
       331       1       3   14.4600   10.8450  -22.5165   0   0   0
       332       1       3   16.2675   12.6525  -22.5165   0   0   0
       333       1       3   16.2675   10.8450  -20.7090   0   0   0
       334       1       3   14.4600   12.6525  -20.7090   0   0   0
       335       1       3   18.0750   10.8450  -22.5165   0   0   0
       336       1       3   19.8825   12.6525  -22.5165   0   0   0
       337       1       3   19.8825   10.8450  -20.7090   0   0   0
       338       1       3   18.0750   12.6525  -20.7090   0   0   0
       339       1       3    0.0000   14.4600  -22.5165   0   0   0
       340       1       3    1.8075   16.2675  -22.5165   0   0   0
       341       1       3    1.8075   14.4600  -20.7090   0   0   0
       342       1       3    0.0000   16.2675  -20.7090   0   0   0
       343       1       3    3.6150   14.4600  -22.5165   0   0   0
       344       1       3    5.4225   16.2675  -22.5165   0   0   0
       345       1       3    5.4225   14.4600  -20.7090   0   0   0
       346       1       3    3.6150   16.2675  -20.7090   0   0   0
       347       1       3    7.2300   14.4600  -22.5165   0   0   0
       348       1       3    9.0375   16.2675  -22.5165   0   0   0
       349       1       3    9.0375   14.4600  -20.7090   0   0   0
       350       1       3    7.2300   16.2675  -20.7090   0   0   0
       351       1       3   10.8450   14.4600  -22.5165   0   0   0
       352       1       3   12.6525   16.2675  -22.5165   0   0   0
       353       1       3   12.6525   14.4600  -20.7090   0   0   0
       354       1       3   10.8450   16.2675  -20.7090   0   0   0
       355       1       3   14.4600   14.4600  -22.5165   0   0   0
       356       1       3   16.2675   16.2675  -22.5165   0   0   0
       357       1       3   16.2675   14.4600  -20.7090   0   0   0
       358       1       3   14.4600   16.2675  -20.7090   0   0   0
       359       1       3   18.0750   14.4600  -22.5165   0   0   0
       360       1       3   19.8825   16.2675  -22.5165   0   0   0
       361       1       3   19.8825   14.4600  -20.7090   0   0   0
       362       1       3   18.0750   16.2675  -20.7090   0   0   0
       363       1       3    0.0000   18.0750  -22.5165   0   0   0
       364       1       3    1.8075   19.8825  -22.5165   0   0   0
       365       1       3    1.8075   18.0750  -20.7090   0   0   0
       366       1       3    0.0000   19.8825  -20.7090   0   0   0
       367       1       3    3.6150   18.0750  -22.5165   0   0   0
       368       1       3    5.4225   19.8825  -22.5165   0   0   0
       369       1       3    5.4225   18.0750  -20.7090   0   0   0
       370       1       3    3.6150   19.8825  -20.7090   0   0   0
       371       1       3    7.2300   18.0750  -22.5165   0   0   0
       372       1       3    9.0375   19.8825  -22.5165   0   0   0
       373       1       3    9.0375   18.0750  -20.7090   0   0   0
       374       1       3    7.2300   19.8825  -20.7090   0   0   0
       375       1       3   10.8450   18.0750  -22.5165   0   0   0
       376       1       3   12.6525   19.8825  -22.5165   0   0   0
       377       1       3   12.6525   18.0750  -20.7090   0   0   0
       378       1       3   10.8450   19.8825  -20.7090   0   0   0
       379       1       3   14.4600   18.0750  -22.5165   0   0   0
       380       1       3   16.2675   19.8825  -22.5165   0   0   0
       381       1       3   16.2675   18.0750  -20.7090   0   0   0
       382       1       3   14.4600   19.8825  -20.7090   0   0   0
       383       1       3   18.0750   18.0750  -22.5165   0   0   0
       384       1       3   19.8825   19.8825  -22.5165   0   0   0
       385       1       3   19.8825   18.0750  -20.7090   0   0   0
       386       1       3   18.0750   19.8825  -20.7090   0   0   0
       387       1       3    0.0000    0.0000  -18.9015   0   0   0
       388       1       3    1.8075    1.8075  -18.9015   0   0   0
       389       1       3    1.8075    0.0000  -17.0940   0   0   0
       390       1       3    0.0000    1.8075  -17.0940   0   0   0
       391       1       3    3.6150    0.0000  -18.9015   0   0   0
       392       1       3    5.4225    1.8075  -18.9015   0   0   0
       393       1       3    5.4225    0.0000  -17.0940   0   0   0
       394       1       3    3.6150    1.8075  -17.0940   0   0   0
       395       1       3    7.2300    0.0000  -18.9015   0   0   0
       396       1       3    9.0375    1.8075  -18.9015   0   0   0
       397       1       3    9.0375    0.0000  -17.0940   0   0   0
       398       1       3    7.2300    1.8075  -17.0940   0   0   0
       399       1       3   10.8450    0.0000  -18.9015   0   0   0
       400       1       3   12.6525    1.8075  -18.9015   0   0   0
       401       1       3   12.6525    0.0000  -17.0940   0   0   0
       402       1       3   10.8450    1.8075  -17.0940   0   0   0
       403       1       3   14.4600    0.0000  -18.9015   0   0   0
       404       1       3   16.2675    1.8075  -18.9015   0   0   0
       405       1       3   16.2675    0.0000  -17.0940   0   0   0
       406       1       3   14.4600    1.8075  -17.0940   0   0   0
       407       1       3   18.0750    0.0000  -18.9015   0   0   0
       408       1       3   19.8825    1.8075  -18.9015   0   0   0
       409       1       3   19.8825    0.0000  -17.0940   0   0   0
       410       1       3   18.0750    1.8075  -17.0940   0   0   0
       411       1       3    0.0000    3.6150  -18.9015   0   0   0
       412       1       3    1.8075    5.4225  -18.9015   0   0   0
       413       1       3    1.8075    3.6150  -17.0940   0   0   0
       414       1       3    0.0000    5.4225  -17.0940   0   0   0
       415       1       3    3.6150    3.6150  -18.9015   0   0   0
       416       1       3    5.4225    5.4225  -18.9015   0   0   0
       417       1       3    5.4225    3.6150  -17.0940   0   0   0
       418       1       3    3.6150    5.4225  -17.0940   0   0   0
       419       1       3    7.2300    3.6150  -18.9015   0   0   0
       420       1       3    9.0375    5.4225  -18.9015   0   0   0
       421       1       3    9.0375    3.6150  -17.0940   0   0   0
       422       1       3    7.2300    5.4225  -17.0940   0   0   0
       423       1       3   10.8450    3.6150  -18.9015   0   0   0
       424       1       3   12.6525    5.4225  -18.9015   0   0   0
       425       1       3   12.6525    3.6150  -17.0940   0   0   0
       426       1       3   10.8450    5.4225  -17.0940   0   0   0
       427       1       3   14.4600    3.6150  -18.9015   0   0   0
       428       1       3   16.2675    5.4225  -18.9015   0   0   0