LAMMPS (16 Mar 2018)
#lammps script for united atom polymer simulation (full-scale run)

# 1. INITIALIZATION
#allows pair, bond, bending and dihedral interactions
atom_style molecular

  # periodic (video game) boundaries in all cartesian directions
boundary p p f

  # uses real units (instead of units based on pair potential parameters).  List of units used in manual
units real

###########
# 2. ATOM DEFINITION
##########

   ##
   # Read in data from starting configuration file
   ##

#read_data chainconfig.dat

 #use to restart
read_restart RESTART
WARNING: Restart file used different boundary settings, using restart file values (../read_restart.cpp:789)
  orthogonal box = (-200.000 -200.000 0.000) to (200.000 200.000 124.000)
  2 by 2 by 7 MPI processor grid
  98 atoms
  97 bonds
  96 angles
  95 dihedrals
  2 = max # of 1-2 neighbors
  2 = max # of 1-3 neighbors
  4 = max # of 1-4 neighbors
  6 = max # of special neighbors

   ##
   # Specify the nature of the bond interactions
   ##


bond_style harmonic
bond_coeff 1 450 1.54

special_bonds lj 0.0 0.0 0.0 angle no dihedral no

angle_style harmonic
angle_coeff 1 62.1  114.00

dihedral_style opls
dihedral_coeff * 1.4110 -0.2708 3.143 0.0

mass * 14.0

pair_style lj/cut 14.0
pair_coeff 1 1 0.0912 3.95 14.0
#pair_modify tail yes


group freeze type 2
6 atoms in group freeze
fix startend freeze setforce 0.0 0.0 0.0

################
# 3.  Simulation Settings
###############

neighbor        2.0 bin
neigh_modify    every 1 delay 0 check yes



# Define some variables
variable Lx          equal xhi-xlo   # Ang
variable Ly          equal yhi-ylo   # Ang
variable Lz          equal zhi-zlo   # Ang

variable dz          equal ${Lz}/30  # Ang
variable dz          equal 124.000000/30  

variable zzlo        equal zlo  # Ang
variable zzhi        equal zhi  # Ang
variable TEMP        equal 300.00 # K
variable TThi        equal 320.00 # K
variable TTlo        equal 280.00 # K
variable dt          equal 1.25 # fs

timestep     ${dt}
timestep     1.25

variable zlo1      equal ${zzlo}+${dz}
variable zlo1      equal 0.000+${dz}
variable zlo1      equal 0.000+4.1333333
variable zlo2      equal ${zzlo}+2*${dz}
variable zlo2      equal 0.000+2*${dz}
variable zlo2      equal 0.000+2*4.13333333
variable zhi1      equal ${zzlo}+28*${dz}
variable zhi1      equal 0.000+28*${dz}
variable zhi1      equal 0.000+28*4.13333333
variable zhi2      equal ${zzlo}+29*${dz}
variable zhi2      equal 0.000+29*${dz}
variable zhi2      equal 0.000+29*4.13333333

# heat layers

region          hot  block  INF INF INF INF ${zlo1} ${zlo2}
region          cold block INF INF INF INF ${zhi1} ${zhi2}
compute         Thot all temp/region hot
compute         Tcold all temp/region cold


# 1st equilibration run
fix             1 all nvt temp ${TEMP} ${TEMP} 50
fix             1 all nvt temp 300 ${TEMP} 50
fix             1 all nvt temp 300 300 50
thermo          100
run             1000
Unused restart file peratom fix info:
  fix style: STORE, fix ID: layers_COMPUTE_STORE
Neighbor list info ...
  update every 1 steps, delay 0 steps, check yes
  max neighbors/atom: 2000, page size: 100000
  master list distance cutoff = 16
  ghost atom cutoff = 16
  binsize = 8, bins = 6 5 16
  1 neighbor lists, perpetual/occasional/extra = 1 0 0
  (1) pair lj/cut, perpetual
      attributes: half, newton on
      pair build: half/bin/newton
      stencil: half/bin/3d/newton
      bin: standard
Per MPI rank memory allocation (min/avg/max) = 8.75 | 9.044 | 9.583 Mbytes
Step Temp E_pair E_mol TotEng Press 
135224000     262.4427    34330.525    85.703071     34492.11    43282.478 
135224100    327.15242    34330.518    84.569662     34509.68    43279.836 
135224200    267.38388    34330.593    94.109083    34502.013    43224.338 
135224300    339.72647    34330.617    88.040741    34516.886    43295.618 
135224400    288.68405    34330.559    79.215351    34493.245    43208.877 
135224500    252.31204    34330.587    97.897899    34501.438    43299.856 
135224600    300.79982    34330.546    90.944769    34508.463    43216.275 
135224700    243.70782     34330.49    86.146854    34487.102     43286.99 
135224800    285.47932    34330.569     98.63771     34511.75    43248.308 
135224900    278.23173    34330.596    86.780513    34497.824    43223.445 
135225000    324.62842    34330.653    100.56962    34525.085    43286.414 
Loop time of 0.0262242 on 28 procs for 1000 steps with 98 atoms

Performance: 4118.327 ns/day, 0.006 hours/ns, 38132.661 timesteps/s
95.4% CPU use with 28 MPI tasks x no OpenMP threads

MPI task timing breakdown:
Section |  min time  |  avg time  |  max time  |%varavg| %total
---------------------------------------------------------------
Pair    | 4.53e-05   | 0.00050027 | 0.0020499  |   0.0 |  1.91
Bond    | 6.2704e-05 | 0.0012332  | 0.0042801  |   3.8 |  4.70
Neigh   | 0.00092602 | 0.00093272 | 0.00094223 |   0.0 |  3.56
Comm    | 0.008805   | 0.012613   | 0.015649   |   1.8 | 48.10
Output  | 0.00026321 | 0.00026632 | 0.00030208 |   0.0 |  1.02
Modify  | 0.0030322  | 0.0070295  | 0.012369   |   3.4 | 26.81
Other   |            | 0.00365    |            |       | 13.92

Nlocal:    3.5 ave 14 max 0 min
Histogram: 15 1 2 2 1 2 1 2 0 2
Nghost:    35.7857 ave 40 max 25 min
Histogram: 2 0 2 0 3 1 3 1 1 15
Neighs:    32 ave 140 max 0 min
Histogram: 15 2 1 3 1 2 1 1 0 2

Total # of neighbors = 896
Ave neighs/atom = 9.14286
Ave special neighs/atom = 5.87755
Neighbor list builds = 9
Dangerous builds = 0
velocity        all scale ${TEMP}
velocity        all scale 300
unfix           1

# Second Equilibration
fix             1 all nve
fix             hot all langevin ${TThi} ${TThi}  50.0 59804  tally yes
fix             hot all langevin 320 ${TThi}  50.0 59804  tally yes
fix             hot all langevin 320 320  50.0 59804  tally yes
fix             cold all langevin ${TTlo} ${TTlo} 50.0 287859 tally yes
fix             cold all langevin 280 ${TTlo} 50.0 287859 tally yes
fix             cold all langevin 280 280 50.0 287859 tally yes
fix_modify      hot temp Thot
fix_modify      cold temp Tcold

variable        tdiff equal c_Thot-c_Tcold
thermo_style    custom step c_Thot c_Tcold f_hot f_cold v_tdiff
thermo            4000
run             800000
Per MPI rank memory allocation (min/avg/max) = 9.5 | 9.93 | 10.33 Mbytes
Step c_Thot c_Tcold f_hot f_cold v_tdiff 
135225000    584.69396    465.92804           -0           -0    118.76592 
135228000    588.52908    101.84563   -3.7977259    30.757522    486.68345 
135232000    367.63565    150.89379   -19.981947    42.447708    216.74186 
135236000    293.50456    938.23195   -28.826224    68.245784   -644.72739 
135240000    530.69796    375.47347   -59.509935    90.592548    155.22449 
135244000    568.82844    789.10426   -88.263443    97.827035   -220.27582 
135248000    419.72711    343.49645   -75.245786    106.38741    76.230663 
135252000    697.58903    426.33367   -89.332923    123.22637    271.25536 
135256000    503.26022    140.03317   -104.25848    124.77318    363.22706 
135260000    186.28945    250.81446   -101.20749    140.23974   -64.525005 
135264000    180.34661    741.17538   -135.46264    161.56288   -560.82877 
135268000    510.48114    342.27824   -148.50561    177.51795     168.2029 
135272000    370.06649    261.63619   -155.38335    172.87077    108.43031 
135276000    455.35397     98.94947   -169.94701    186.78297     356.4045 
135280000    546.88331    558.36601   -183.35211    212.74105   -11.482702 
135284000    316.98262    408.29624   -207.87589    211.42953   -91.313626 
135288000    847.38632    368.50142   -203.72926    226.16165     478.8849 
135292000    739.14871    199.05309   -207.76932    241.00338    540.09562 
135296000    388.75029    396.19396     -215.668    240.11592   -7.4436682 
135300000    985.91617    343.51702   -212.08719    244.94926    642.39915 
135304000    621.64085    285.95073   -235.27231    242.87845    335.69013 
135308000    279.90408    173.17599   -245.05178    261.02262    106.72809 
135312000    705.36486    224.35218   -239.22731    267.15026    481.01268 
135316000    487.99951    556.34183   -256.76133    272.13562   -68.342317 
135320000    441.30097    210.89896    -262.0912    296.83611    230.40201 
135324000    505.17585    324.19817   -273.58537    274.50685    180.97768 
135328000     585.7115    456.85066   -268.03149    285.64796    128.86084 
135332000    119.42521    316.13202   -275.50073    304.21312   -196.70681 
135336000    291.22082    406.38155   -285.15859    303.93941   -115.16073 
135340000    905.67221    198.23257   -285.04192    315.20857    707.43964 
135344000    1026.4759    159.55425   -303.44836    296.82485    866.92168 
135348000    87.732856    592.07919   -306.99157     316.1496   -504.34633 
135352000    219.51929    436.06722   -302.56343    331.25881   -216.54793 
135356000    454.65021    603.94081   -301.74477    319.35061    -149.2906 
135360000    662.08125    614.60949   -306.38558    328.10706    47.471758 
135364000    587.15328    460.28751   -325.74537     345.4334    126.86577 
135368000    767.67537    287.25686   -333.63234    365.82302    480.41851 
135372000    873.61384    412.73979   -339.79758    375.60187    460.87405 
135376000    404.13355    313.39382   -359.90015    391.66167    90.739725 
135380000    160.74834    610.00973   -387.52199    414.37892   -449.26138 
135384000    502.81286    358.42129    -398.9579    425.94202    144.39157 
135388000    541.02689    778.23616   -418.50571    431.61818   -237.20927 
135392000    492.32294    534.42161   -421.39014    448.14488   -42.098666 
135396000    853.33992    446.13703   -451.19437     470.4487    407.20289 
135400000    838.85664    309.02039   -456.49141    475.11495    529.83625 
135404000    483.31613    1125.1956   -454.32496    475.46494   -641.87951 
135408000    552.66537    353.60022   -454.79347     472.5382    199.06515 
135412000    618.44299    258.74393   -458.85306    486.76238    359.69906 
135416000    288.20999    745.50325   -473.60203     505.7802   -457.29326 
135420000    428.37708    601.50769   -487.15257    506.84412   -173.13062 
135424000    350.46246    297.34838   -488.78972    515.73253    53.114073 
135428000    280.38785    373.15457   -500.12068    539.52775   -92.766716 
135432000    228.52317    280.78421   -521.78888    557.01804   -52.261044 
135436000     183.8955    556.61452   -540.44445    568.69918   -372.71902 
135440000    230.15786    137.62607   -540.70757    554.43163     92.53179 
135444000    1159.5082    480.19868   -546.31025    559.20233    679.30949 
135448000    500.39554    783.61796   -550.14722    566.57866   -283.22242 
135452000    572.86416    413.68178   -555.46167    577.02698    159.18237 
135456000    358.15567     793.7987   -579.02935    585.99019   -435.64303 
135460000    224.33563    449.43128   -576.48544    599.48827   -225.09566 
135464000    661.57318      465.816   -577.98667    594.38166    195.75717 
135468000    186.40502    381.21833   -589.95768    617.53279   -194.81331 
135472000    774.12753    348.77045   -601.76306    624.60389    425.35708 
135476000    507.55553    180.17836   -620.29294    641.38494    327.37717 
135480000    742.82531    102.32911   -643.31897    649.22239     640.4962 
135484000    267.89294    593.70968   -646.03547    653.07225   -325.81674 
135488000    333.59159    486.08104   -637.23558    666.15474   -152.48945 
135492000    301.32893     216.5089   -662.32552    681.13848    84.820029 
135496000    286.59628    511.27329   -673.24738    699.56866   -224.67701 
135500000    376.00437    312.94844   -700.41439    718.93211    63.055927 
135504000    498.02081    331.55687   -721.12834    742.06524    166.46394 
135508000    185.48863    338.89501   -714.34298     751.0708   -153.40637 
135512000    901.60889    776.89324     -722.645    760.55777    124.71565 
135516000    730.47164    384.68635   -747.72435    769.17367    345.78529 
135520000    657.32726    615.90581   -772.79111    767.34641    41.421446 
135524000    887.62935    237.84585   -767.15784     807.1961     649.7835 
135528000     209.0836    752.16358   -806.87552    829.51881   -543.07997 
135532000    157.76195    340.28098   -800.06809    838.03107   -182.51903 
135536000    700.85162    703.37815   -827.27311    850.53694    -2.526525 
135540000    488.65883    369.39259   -842.69743    859.88947    119.26624 
135544000    318.88532    497.68814   -840.36299    877.95333   -178.80282 
135548000    127.55043    621.56598   -861.93354    895.35745   -494.01555 
135552000    72.088312    315.41042    -869.6125    898.33232   -243.32211 
135556000    135.18753    471.73928    -907.4327    924.65214   -336.55175 
135560000    338.73086    366.33567   -921.76056    927.98155   -27.604806 
135564000    883.31209    743.79756   -918.92103    929.31251    139.51453 
135568000    357.43227    208.90978   -918.47767    943.71473    148.52249 
135572000    349.45086    825.86548   -931.84898     942.7624   -476.41461 
135576000    748.89111    283.30388   -938.55482    946.22297    465.58723 
135580000    618.58614    123.11987   -921.30582     942.2701    495.46628 
135584000    421.73336     182.4707    -936.7029    947.46881    239.26266 
135588000    740.61946    464.49918   -943.16216    954.73966    276.12027 
135592000    373.01238    152.21101   -956.06546    982.70576    220.80137 
135596000    452.19465    279.99529   -975.24949    980.92047    172.19936 
135600000     884.2763    216.83807   -960.06269    971.13375    667.43823 
135604000    304.20652    722.25895   -970.97885    974.71533   -418.05243 
135608000    223.85751    316.64487   -975.02286    1004.5673   -92.787352 
135612000    370.45005    538.01227   -992.45271    1014.2233   -167.56222 
135616000    353.10826    531.47862   -1007.8724    1026.1952   -178.37037 
135620000    253.30025     544.1231   -1029.1588    1048.3786   -290.82285 
135624000    502.24447    288.32593    -1025.802     1058.482    213.91854 
135628000    701.93767    137.87847   -1023.6967    1049.4491    564.05921 
135632000    893.25172    187.18052   -1035.7944    1065.2524     706.0712 
135636000    334.19734    220.37231   -1036.6848    1069.4276    113.82503 
135640000     1105.547    302.62082   -1068.8932    1076.8845    802.92622 
135644000    484.46427    369.72364   -1078.3531    1087.3263    114.74063 
135648000    258.31782    296.96282   -1083.7167    1092.8269   -38.644999 
135652000    649.98944    268.10658   -1094.9813    1114.1178    381.88286 
135656000    265.90055     215.2053   -1107.9117    1114.9266    50.695252 
135660000    209.10155    171.43046   -1110.1309     1135.226    37.671087 
135664000    337.67257     901.5057   -1128.9934    1160.1738   -563.83313 
135668000    292.45047    331.05267   -1127.7632     1168.267   -38.602201 
135672000    986.99206     273.0716   -1167.6294    1187.5503    713.92046 
135676000    434.86171    399.58543   -1177.7541    1203.7105     35.27628 
135680000    576.13242    368.79306   -1200.5651    1225.9973    207.33935 
135684000    319.31893     1267.448   -1208.2247    1219.1112   -948.12905 
135688000     532.5501    338.80017   -1211.6891    1230.2291    193.74993 
135692000    1087.0989    285.53216   -1214.8528    1233.8842    801.56672 
135696000     284.5307    655.08713   -1210.5226    1240.3807   -370.55643 
135700000    177.76083    333.52235   -1223.8894    1250.6124   -155.76152 
135704000    180.98502    756.45913   -1237.1927    1267.5386   -575.47411 
135708000    616.43159    478.19277   -1248.9938    1274.7439    138.23882 
135712000    581.08081    312.32608   -1262.4498    1282.5259    268.75473 
135716000    611.37997    179.93546   -1279.9561     1305.572    431.44451 
135720000     495.4116    456.87385   -1295.2024    1317.7376    38.537757 
135724000    515.38306    73.594841    -1308.618     1320.139    441.78822 
135728000    379.39637    300.16562    -1319.031    1350.0045    79.230744 
135732000    353.22941     279.5779   -1323.6312    1352.3698     73.65151 
135736000    572.64684    160.73262   -1342.9421    1350.6361    411.91422 
135740000    206.30226    617.85376   -1359.3392    1373.2809    -411.5515 
135744000    784.09602    496.74631     -1376.38    1396.6353    287.34971 
135748000    507.64652    127.66331   -1382.6496    1423.4841    379.98321 
135752000    212.46479    282.89901   -1400.3157    1433.9841   -70.434221 
135756000    542.99268    583.14902   -1421.5714    1454.5418   -40.156339 
135760000    651.98587     170.1218   -1426.3397    1450.3647    481.86407 
135764000    353.98117    347.97122   -1436.4641    1460.7448    6.0099516 
135768000    322.43088    418.14647   -1449.0751    1483.3589   -95.715589 
135772000    170.84557    287.64954   -1490.6339    1503.1261   -116.80396 
135776000    576.53616    361.04656   -1495.2997    1519.1012    215.48959 
135780000    828.56632    537.93135   -1504.7176     1538.977    290.63497 
135784000    458.45851    478.19968     -1526.56    1545.1609   -19.741169 
135788000    878.90061    674.05953   -1523.6005    1543.3712    204.84108 
135792000    182.13383    182.62777   -1528.8584    1561.1445  -0.49394558 
135796000    232.36884     639.9415   -1555.5088     1576.802   -407.57267 
135800000    591.83912     346.0348   -1551.6436    1575.1829    245.80432 
135804000    623.77838    546.17611   -1547.3721    1576.2915    77.602272 
135808000    246.63334    433.43895    -1566.233    1584.1072    -186.8056 
135812000    651.80951    485.03321   -1574.4314    1597.0064    166.77629 
135816000    481.86563    393.07574   -1584.0154    1618.2155    88.789885 
135820000    222.80032    381.78787   -1592.1861    1628.3487   -158.98755 
135824000    1120.4644    113.97219   -1603.9532    1627.4131    1006.4922 
135828000    272.00878    458.44577   -1599.0795     1619.837   -186.43698 
135832000     811.0112    334.69805   -1609.1658     1632.085    476.31315 
135836000    553.79553    211.61672   -1616.9346     1645.244    342.17881 
135840000    208.29106    225.71383   -1614.4775     1647.746   -17.422776 
135844000    371.94315    388.04194    -1640.622     1648.957   -16.098792 
135848000    296.79394    515.54883   -1647.1841    1674.8755   -218.75489 
135852000    339.09044    465.07863   -1661.4991    1681.2042   -125.98819 
135856000    226.27635    1105.2248   -1665.8252     1687.014   -878.94847 
135860000    419.69844     709.2515   -1697.8852    1717.6763   -289.55307 
135864000     388.6516    324.77092   -1696.7507    1723.9289    63.880683 
135868000    455.49188    437.90697   -1715.8451    1746.0823    17.584906 
135872000    268.26619    278.23775   -1719.6541    1749.8662   -9.9715517 
135876000    720.60031     561.6968   -1741.3669    1756.2344    158.90351 
135880000    336.93847     81.20565    -1738.657    1778.5251    255.73282 
135884000    647.26118    258.99098   -1754.6571    1779.6433     388.2702 
135888000    498.84366    547.42722   -1757.2367    1791.1295   -48.583566 
135892000    492.55141    567.65376   -1757.4862    1782.4142   -75.102349 
135896000     266.1374    244.46253   -1770.6418    1794.6787    21.674874 
135900000    327.14664    277.03245   -1773.9299    1807.0068    50.114186 
135904000    238.05166    192.18603   -1766.2059    1810.6961    45.865633 
135908000    589.19211      267.796   -1759.8847    1801.9573    321.39611 
135912000    302.95404    910.29643   -1773.7616    1805.0871   -607.34239 
135916000     173.2226    442.06105   -1780.6065    1817.1687   -268.83845 
135920000    615.79251    692.30976   -1812.1205    1815.0605    -76.51725 
135924000    201.62941    118.31747   -1798.1593    1830.1801    83.311942 
135928000    521.33391    421.84342   -1809.4365    1841.1958    99.490489 
135932000     602.1612    629.79118   -1815.5886    1845.8492   -27.629975 
135936000    243.51502    243.13351   -1816.9298     1845.408   0.38151695 
135940000    751.38294    1014.9543   -1826.1729    1835.2278    -263.5714 
135944000     552.0638    296.51684   -1829.9654    1847.4822    255.54696 
135948000    257.43985    562.45784   -1826.9747    1853.9197   -305.01799 
135952000    389.81006    351.23743   -1855.9403    1885.8797     38.57263 
135956000    229.23973    344.75221   -1860.6837    1879.8307   -115.51248 
135960000     587.2139    247.53977   -1886.0087    1913.1058    339.67412 
135964000    650.47348    438.62948   -1893.5157    1924.9384      211.844 
135968000    675.94023    147.53555   -1913.9011    1942.8517    528.40468 
135972000    501.20996    908.52495   -1943.4841    1950.0659   -407.31499 
135976000    366.07795     220.6387   -1962.1517    1963.2025    145.43925 
135980000    445.35702    386.73429   -1958.8743    1988.2035    58.622723 
135984000    893.16123    1074.7344    -1976.801    1982.8372    -181.5732 
135988000    616.48862     272.6755   -1969.0549    1987.7016    343.81312 
135992000    257.88583    108.90556   -1966.6336    1983.0497    148.98027 
135996000    538.90553      404.854   -1973.5653    1993.1244    134.05153 
136000000     625.4323    906.00043   -1977.3977    1993.2825   -280.56813 
136004000    511.33611    742.07633   -1999.7005    2013.5774   -230.74022 
136008000    332.64434    137.44433   -2013.4544    2041.5526    195.20001 
136012000    485.69112    194.70069   -2027.3959    2037.7382    290.99043 
136016000    411.66987    301.49193   -2035.9845    2057.9781    110.17794 
136020000    435.01908    325.68047   -2033.2896    2058.4233    109.33861 
136024000    468.78579    233.82343    -2031.174    2055.4127    234.96236 
136025000    808.97893    592.76157   -2035.1112     2045.635    216.21736 
Loop time of 20.4789 on 28 procs for 800000 steps with 98 atoms

Performance: 4218.973 ns/day, 0.006 hours/ns, 39064.560 timesteps/s
100.0% CPU use with 28 MPI tasks x no OpenMP threads

MPI task timing breakdown:
Section |  min time  |  avg time  |  max time  |%varavg| %total
---------------------------------------------------------------
Pair    | 0.037546   | 0.39494    | 1.6354     |  71.7 |  1.93
Bond    | 0.047172   | 0.97885    | 3.4578     | 116.0 |  4.78
Neigh   | 0.12541    | 0.1313     | 0.13688    |   0.8 |  0.64
Comm    | 5.5727     | 6.8735     | 11.234     |  48.2 | 33.56
Output  | 0.0049751  | 0.0051954  | 0.0069456  |   0.5 |  0.03
Modify  | 4.9718     | 9.3817     | 11.687     |  67.5 | 45.81
Other   |            | 2.713      |            |       | 13.25

Nlocal:    3.5 ave 14 max 0 min
Histogram: 18 0 1 0 1 3 0 1 0 4
Nghost:    49 ave 78 max 25 min
Histogram: 5 5 4 0 2 2 0 4 0 6
Neighs:    32.1429 ave 144 max 0 min
Histogram: 18 0 1 1 2 1 1 0 3 1

Total # of neighbors = 900
Ave neighs/atom = 9.18367
Ave special neighs/atom = 5.87755
Neighbor list builds = 7531
Dangerous builds = 0
unfix 1


# PRODUCTION

fix             1 all nve
fix             hot all langevin ${TThi} ${TThi}  50.0 59804  tally yes
fix             hot all langevin 320 ${TThi}  50.0 59804  tally yes
fix             hot all langevin 320 320  50.0 59804  tally yes
fix             cold all langevin ${TTlo} ${TTlo} 50.0 287859 tally yes
fix             cold all langevin 280 ${TTlo} 50.0 287859 tally yes
fix             cold all langevin 280 280 50.0 287859 tally yes
fix_modify      hot temp Thot
fix_modify      cold temp Tcold

variable        tdiff equal c_Thot-c_Tcold
thermo          4000

dump gigo all atom 4000 dump.cords_xyz.dat
dump_modify gigo scale no
dump vfgigo all custom 4000 dump.velo.dat id vx vy vz fx fy fz

# thermal conductivity calculation
# # reset langevin thermostats to zero energy accumulation
#
compute         ke all ke/atom
variable        temp atom c_ke/1.5/0.0019872

fix             ave all ave/time 100 40 4000 v_tdiff ave running
thermo_style    custom step temp c_Thot c_Tcold f_hot f_cold v_tdiff f_ave

#compute         layers all chunk/atom bin/1d z lower 0.05 units reduced
compute         layers all chunk/atom bin/1d z lower ${dz} units box
compute         layers all chunk/atom bin/1d z lower 4.14866663333333 units box
fix             2 all ave/chunk  100 40 4000 layers v_temp file profile.langevin

run             32000000
Per MPI rank memory allocation (min/avg/max) = 9.751 | 10.46 | 10.58 Mbytes
Step Temp c_Thot c_Tcold f_hot f_cold v_tdiff f_ave 
136025000    304.51983    808.97893    592.76157           -0           -0    216.21736            0 
136028000    269.35401     417.8184    297.44033   -1.1196899    24.903366    120.37807            0 
136032000    277.16834    228.24902    590.19064   -29.951128      39.2218   -361.94162   -22.370091 
136036000    298.81427    499.79933    415.71744   -44.636283    51.054128    84.081898    15.160069 
136040000    275.58383      419.304    136.23588   -45.740163    66.520268    283.06811   -10.684242 
136044000    272.62213    250.17513    229.48882   -41.972173    62.420093    20.686311    6.2527673 
136048000    276.72976    313.65882    1142.5342   -39.137049    55.893501   -828.87542    7.4897887 
136052000    281.18431    489.14962    232.09316   -63.932042    75.607336    257.05645   -3.2471138 
136056000    296.60174    356.32463    437.32269   -71.956484    77.541095   -80.998069    2.5827973 
136060000    289.47527    245.59369    343.91503   -98.670576    105.88174   -98.321336  -0.03434206 
136064000    244.14358    315.65527    453.41134   -109.93495    133.58577   -137.75608    4.1182654 
136068000    266.43356    277.27456    146.18853   -118.15935    132.03672    131.08604    4.4963111 
136072000    274.38009    231.70226    408.51175   -119.04772    137.03451    -176.8095     11.73518 
136076000    272.75362    439.90022    551.60508   -117.40182    138.88339   -111.70486    5.0549263 
136080000    265.08545    340.28997    332.15481   -124.47446     140.8272    8.1351589    12.929937 
136084000    257.05491    472.76512    481.94773   -130.58599    142.33912   -9.1826172    14.653891 
136088000    315.93457    220.82969    419.66843   -123.87015    133.53126   -198.83874    17.954028 
136092000    286.97571    411.07671    265.75589   -153.76205      163.672    145.32082    19.373203 
136096000    269.74899    520.84623    665.22206    -152.1293    168.91366   -144.37583    19.523689 
136100000    295.57263    169.32683    537.83562   -166.76448    171.02242   -368.50879    21.215446 
136104000    265.61094    448.93476    291.74393   -161.82362    183.84816    157.19083    23.126192 
136108000    263.32125    602.17377    254.82559   -188.49454    200.29917    347.34818     27.59078 
136112000    289.42068    596.46653    771.85354   -213.46902    215.94613   -175.38701    27.473209 
136116000    306.36871    355.90254    524.75848   -236.13878    245.44105   -168.85594    33.026329 
136120000    302.53431    284.47872     728.5306   -248.66898    257.25381   -444.05187    32.010568 
136124000    303.94389    255.77902    346.57956   -272.11375    272.65753   -90.800542    33.003541 
136128000     302.1792    471.66937    1040.0527   -300.86498    302.92648   -568.38333    30.313888 
136132000    291.11133    574.20463     851.2576   -305.63054    307.54395   -277.05296    31.326627 
136136000    331.36625    675.31332    446.98338    -325.2531    325.02171    228.32994    29.984861 
136140000    284.65202    229.97528    591.77425   -325.19128    336.70743   -361.79897    30.236925 
136144000     281.8326    678.22785     195.6389   -340.09813    353.17466    482.58895    32.502881 
136148000    313.97621    1029.2901    248.92018   -356.04105    355.08919    780.36994    34.029256 
136152000    292.65692    843.09659    331.66622   -351.18728    366.93363    511.43037    35.703694 
136156000    275.78612    406.16813    291.67529   -374.53171    390.20256    114.49284    34.829986 
136160000     270.6155    633.78121    203.09628   -410.72941    415.68118    430.68493    35.778855 
136164000    304.31133    828.53323    369.15554   -417.68588    428.53737    459.37769    36.677866 
136168000    256.17629    382.27462    410.78106   -422.27776    436.32731    -28.50644    36.840335 
136172000    294.54153    1003.4421    457.05396   -424.91554    440.27513    546.38817    36.026677 
136176000    283.27034     924.7128    725.91096   -433.18074    439.38475    198.80184    35.743164 
136180000    262.82012    331.10247    549.10442   -436.23685    449.83101   -218.00195    34.633291 
136184000    285.71486    565.97032    897.99641   -458.23592     461.8198   -332.02609    36.283513 
136188000    298.34351    277.53479    973.18941   -461.50651    480.11614   -695.65462    37.273341 
136192000    246.58572    582.93404    299.85131   -461.58629    486.54449    283.08273     38.84271 
136196000     310.6556    266.66386    1084.0095   -476.90008    479.07925   -817.34564    38.063551 
136200000    329.44024    406.19361    805.07237    -494.8978    497.20393   -398.87876    38.261312 
136204000    308.17449     580.4899    406.86763   -508.21566    506.83447    173.62227    39.641571 
136208000    278.05338    461.55238    458.32849   -510.20886    512.32603      3.22389    40.599386 
136212000    268.96084    961.98389    311.31105   -521.71987    520.47186    650.67285    40.728002 
136216000    293.67516    347.15883     383.6547   -530.35446    539.84868   -36.495862    40.479926 
136220000    321.15305    488.51806    505.54714   -554.18671    547.88686    -17.02908    39.105905 
136224000    293.58092    629.61955    252.98552   -556.68763    559.76146    376.63402    38.966768 
136228000    335.59156    613.05986    328.53311   -576.64911    571.81163    284.52675    40.261021 
136232000    252.63738    186.71136    433.90811   -578.78075    591.13744   -247.19675    38.243109 
136236000    251.50153    263.02248      400.375   -580.00382     602.4821   -137.35252      38.9827 
136240000    267.16946    568.69544    345.73346    -580.9098    598.88554    222.96198    38.591199 
136244000    291.62863    300.22062    506.21571   -589.75747    601.90125   -205.99509    37.412695 
136248000    254.40317    638.16396    564.11566   -578.98004    607.75102    74.048297     37.75503 
136252000    291.53695     106.3344    510.13455   -611.13557    614.81689   -403.80015    36.947819 
136256000     247.6432    154.36187    138.21645   -624.20039    641.38009     16.14542    37.435253 
136260000    339.20107    794.93099    197.60029   -661.14423    651.56266     597.3307    37.956597 
136264000    304.68449    245.51081    508.83834   -651.98921    667.79465   -263.32753    38.504109 
136268000    295.71417    371.21638     251.1403   -674.53157    681.18137    120.07607     39.83521 
136272000    280.11209    622.72814    457.38317   -675.26579    680.24893    165.34498    39.910209 
136276000      278.781    373.11923    409.10839   -671.65116    686.89387   -35.989156    39.803068 
136280000    278.28611    212.24357    636.87207   -691.80442    704.37749    -424.6285    38.807291 
136284000    287.49395    240.60053    666.00876   -711.59043    723.72613   -425.40823    39.241818 
136288000    282.71454    412.87295    1010.6783   -714.49997    733.32995   -597.80532     39.64771 
136292000     277.8044    298.92748    547.30158   -733.69672    746.41475   -248.37411    37.479315 
136296000    277.05767    492.96441    568.87762   -732.77591    741.16126   -75.913205    38.783258 
136300000    313.58465    517.76196    304.85941   -758.40948     757.3345    212.90255    40.053485 
136304000    284.04208    234.64625    225.85615   -755.31001    762.00534    8.7900968    38.800517 
136308000    269.63115    121.49256    278.22187   -746.65971    768.44179   -156.72932    37.868337 
136312000    298.39751    335.02008    559.96704   -761.71137    764.10463   -224.94696    38.751095 
136316000    265.57614    714.03407    310.91119   -767.10144    772.15963    403.12288    39.369423 
136320000    288.13331     329.5947    1361.7197    -773.5774    774.80804    -1032.125    38.868119 
136324000    284.78141    142.33324    469.32182   -782.44708    786.26967   -326.98858    38.884316 
136328000    311.30339     430.9074    330.31968   -794.93188    790.91119    100.58772    39.926405 
136332000    297.29475    1018.3848    238.00086   -811.40635    826.50652    780.38392    39.960072 
136336000    235.65375    463.01793    442.79289   -796.22302    828.90052    20.225045    39.330751 
136340000    319.75103    277.37931    843.59917   -832.92165    836.27326   -566.21986     38.06879 
136344000    332.15569    1427.7286    316.42026   -833.53709    831.47857    1111.3083    37.922729 
136348000    288.54076    346.46252    271.63062   -850.68698    855.68644    74.831891    38.671755 
136352000    277.81298    174.39355    450.40525    -841.3026    854.47936    -276.0117    38.546222 
136356000    319.62691    292.13491    475.15953   -856.75595    850.56469   -183.02462     38.56274 
136360000    261.25739    372.24734    285.79985   -878.27168    884.14934    86.447494    38.191631 
136364000    288.45891    141.87163    407.57427    -892.3049    896.76623   -265.70264    37.058411 
136368000     291.0235    215.18875    575.40765   -878.12812    894.23598    -360.2189    37.166097 
136372000    269.29463    448.69098    409.36574   -887.85481    895.05852    39.325241    37.202527 
136376000    299.78814    855.55974    638.00521   -905.04105    901.47985    217.55453    37.899061 
136380000    256.48062    186.24116    808.15419   -897.87371    915.34976   -621.91303    38.058394 
136384000    261.98447    569.83362    554.18765   -917.38676    921.92518    15.645971    38.452261 
136388000    250.92911    239.29468    514.28212    -894.3256    913.24103   -274.98744    38.249493 
136392000    276.12052    758.86156    679.71299   -918.46955    933.66631    79.148564    37.691083 
136396000    289.62226    620.31511    571.29488   -922.81456    921.32019    49.020223    37.858393 
136400000    307.18859    573.66477    678.88855   -937.66354    933.41415   -105.22378    37.530372 
136404000    279.63377    522.42682    177.00231   -955.20708    950.57158    345.42451    37.206672 
136408000    289.01796    297.74378    192.83582   -954.49561     971.4828    104.90795    37.994867 
136412000    300.10356    333.16205    725.73371   -961.23281    965.80297   -392.57166    37.477828 
136416000    293.58386    635.82198    243.56892   -970.32315    975.24463    392.25306    36.798791 
136420000    285.34468    331.71841    370.83106   -989.01856    1001.4531   -39.112646      36.5487 
136424000    272.63708     459.2207    363.36811   -989.29301    1004.2526    95.852585    36.426682 
136428000    269.72504    627.72875    580.34092   -1011.5483    1022.0085    47.387831    36.082504 
136432000    294.05206    606.06307    520.55599   -1029.3511    1024.4977    85.507085    36.404629 
136436000    285.22122    1146.5618    417.85685   -1044.4808    1043.1704    728.70492    36.459147 
136440000    250.13259    421.88723    410.16781   -1039.3228    1057.2437    11.719418    36.702762 
136444000    297.07291    468.52829     235.0332   -1061.8879    1076.8569    233.49509    37.274846 
136448000    275.30104    152.08974    593.03293   -1055.0013    1068.6644   -440.94319    37.406383 
136452000    310.76971    662.72769    241.39987   -1088.6006      1084.87    421.32782    38.616451 
136456000    298.81164    168.12309    270.37559    -1074.513    1083.5887   -102.25249      38.7971 
136460000    269.01796    543.70975    439.55149   -1091.2763    1099.9052    104.15827    38.794044 
136464000    281.94895    482.07582    329.45092   -1106.6366    1118.1555     152.6249      38.6288 
136468000    294.77918     510.4513    111.63056   -1138.7015    1138.2834    398.82074    38.667681 
136472000    287.81104    230.05686    241.86194   -1154.5127    1172.4433   -11.805075    38.710689 
136476000    305.86608    423.12763     652.4473   -1168.5739    1166.5997   -229.31966    38.164875 
136480000     244.8058    284.00312    267.61401   -1171.2434    1190.2869    16.389106    38.131221 
136484000    312.81111    544.19472    1191.3937    -1189.018    1188.3844   -647.19899    38.355497 
136488000    267.51434    994.09364    490.03878   -1198.3272     1209.575    504.05486    37.824315 
136492000    271.50166     160.5446    252.14397   -1203.0394    1212.0501    -91.59937    37.838785 
136496000    262.91335    174.11225    324.95045   -1216.2162    1221.3068    -150.8382     37.98015 
136500000     251.6011    127.08758    197.80731   -1211.1494    1230.7756   -70.719723    37.966275 
136504000    284.01967    453.27355    386.16054   -1235.8061    1234.7669     67.11301    38.481877 
136508000    298.61575    431.23337    1002.8917   -1229.8019    1244.0872   -571.65836    39.030238 
136512000    329.86974    773.11529    276.65113   -1262.7466    1257.8209    496.46416    38.932847 
136516000    249.67463    198.30601    403.70886    -1260.409     1281.236   -205.40285    39.147643 
136520000    294.22322    651.07995    1002.0599   -1282.4648    1286.8444   -350.97999    39.441851 
136524000    277.40479    302.01707    314.35516   -1271.3436    1289.5152    -12.33809    39.632552 
136528000    291.96788    283.16462    701.75629    -1280.247    1297.9822   -418.59168     39.72911 
136532000    299.85912    915.68234    255.32796   -1284.0645    1291.9298    660.35438    39.569779 
136536000    270.42473    895.42737    577.06197   -1283.6996    1297.1165     318.3654    40.152348 
136540000    277.65212    543.99247    347.67597    -1280.109    1286.5098    196.31651    40.055008 
136544000    268.98757    363.81387     342.7143   -1284.1993     1306.781    21.099568    39.714344 
136548000    267.41479    285.30916    291.92152   -1300.3199    1314.6311   -6.6123532    39.441577 
136552000    319.19393    470.78357    164.93562   -1325.1958    1322.3451    305.84795    39.175755 
136556000    291.63172    628.30739    349.22805   -1337.6302    1349.9737    279.07933    39.597456 
136560000    267.84368    235.12412    387.66627   -1344.1224    1351.5363   -152.54215    39.364119 
136564000    285.36911    650.21487    328.15716   -1354.1977    1362.3247    322.05771    39.878325 
136568000    299.49176    500.65657    551.51082   -1361.6323    1375.8699   -50.854256    39.619155 
136572000    250.84021    422.10509    404.87763   -1366.8286    1391.6307    17.227463    39.703113 
136576000    280.38475    381.80972    243.03946   -1385.5647    1392.4536    138.77026    39.415009 
136580000    331.59789    141.73208    298.14138   -1407.0769    1394.8544   -156.40929    38.888225 
136584000    303.25865    731.66172    349.87014   -1408.2953    1417.1874    381.79158    38.890707 
136588000    313.26667    812.51925    401.25183   -1426.9263    1422.4237    411.26743     39.06033 
136592000    318.82431    409.04599    693.27759   -1430.0879    1432.6687    -284.2316    39.387839 
136596000    295.73013     105.0374    321.29272   -1442.8639    1451.1626   -216.25532    39.982937 
136600000    287.16604    580.07438    384.80587    -1441.381    1461.3532    195.26851     39.99928 
136604000    319.31028    767.99983    435.04855   -1458.8995    1469.0935    332.95129    40.141731 
136608000    257.87037    166.67754    204.87035   -1480.7981    1496.6291   -38.192813    39.944516 
136612000    266.06108    746.35483    141.39622   -1496.5389    1511.3109    604.95861    40.136093 
136616000    273.40533    376.40049    413.78406   -1502.9813    1527.0697   -37.383574    40.080174 
136620000    321.17038    361.09061    344.69914   -1520.8692    1521.7029    16.391471    39.728516 
136624000    302.05628    444.63593    777.51843   -1540.7948     1544.899    -332.8825    39.317739 
136628000    299.89518    450.98448    332.78051   -1556.0395     1552.177    118.20398     39.44205 
136632000    281.92279    331.50918    281.08171   -1556.5993    1567.3388     50.42747    39.422017 
136636000    273.78656    368.44003    247.15029   -1559.5118    1578.7362    121.28974    39.692732 
136640000     271.4811    457.45423    487.64867    -1560.041    1565.2425   -30.194443    39.342612 
136644000    289.64589    546.27855    714.99007   -1564.8414    1569.5083   -168.71152    39.046272 
136648000    255.58062    431.89365    591.28038   -1564.8992    1588.2005   -159.38674    39.056161 
136652000    307.80488    789.78775    420.90068   -1587.0013    1585.0292    368.88706    39.346092 
136656000    297.49135    455.27677    403.38043   -1603.3711    1614.1792    51.896338    38.887729 
136660000    304.93921    409.27125    655.95712   -1618.0607    1625.2756   -246.68588    38.169167 
136664000    322.42961     369.6004     318.9788   -1641.6196    1627.7213    50.621597    38.753696 
136668000    298.11258    651.01271    581.73441   -1651.7282    1649.2744    69.278304    38.849324 
136672000    277.31301    645.64093    597.69282   -1640.6216    1651.6708     47.94811    38.874226 
136676000    281.82935    416.92581    281.76201   -1644.0289    1658.2947     135.1638     38.88067 
136680000    285.22254    161.27748    361.70078   -1662.5832    1676.4171    -200.4233    38.766357 
136684000    241.38878    193.17092    449.98215    -1671.237    1693.5842   -256.81123    38.757183 
136688000    313.16607     345.5654    353.60716    -1689.683    1684.0765   -8.0417576    38.712355 
136692000    280.18952    405.23622    326.59763   -1673.3359    1684.2378    78.638587    38.573438 
136696000    257.55666    376.11962    420.28736    -1678.526    1693.8508   -44.167733     38.34164 
136700000    283.07101    658.69286    369.20509   -1697.4257    1708.9228    289.48778    38.973677 
136704000    291.43023    328.41961    270.15678    -1709.216    1723.8372    58.262834    39.434933 
136708000    317.69154    590.38624     679.9863   -1734.3408    1736.7608    -89.60006    39.544474 
136712000    282.90322    656.91582    600.99573    -1736.644    1751.1398    55.920094    39.617131 
136716000    333.32466    441.53205    175.37165   -1749.4781     1755.818     266.1604    39.719353 
136720000    273.94325    461.67049    248.61029   -1754.5359    1765.9694     213.0602    40.126953 
136724000    260.86211    238.29384     455.4303    -1759.657    1773.6267   -217.13646    40.252772 
136728000    281.24828    272.26944    145.12725   -1781.3648     1774.861    127.14219    40.176661 
136732000    261.39026    813.94945    565.16918   -1779.9905    1792.4382    248.78027    40.469177 
136736000    287.86793    447.21922    405.32227   -1801.9852    1804.8655     41.89695    40.122601 
136740000    293.27898    426.47546    365.49621   -1810.7644    1817.3304     60.97925    40.479379 
136744000    328.59444    700.40386    650.56725   -1811.2961    1811.4307    49.836611      41.0062 
136748000    290.61872    188.75027     345.5586     -1818.68    1826.2398   -156.80832    40.900556 
136752000    243.56099    145.71532    465.43929   -1821.0817    1854.3299   -319.72397    40.917161 
136756000    235.64345    714.71788    217.76859   -1828.0159    1857.4069     496.9493    40.748831 
136760000     275.3343    317.51741    363.47922   -1833.5053    1844.5839   -45.961816    40.680464 
136764000    320.08238    470.28648    969.35194   -1847.4963     1846.775   -499.06545     40.57151 
136768000    295.08852    445.85941    329.27473    -1847.157    1854.9258    116.58468    40.466159 
136772000    290.24559    629.84037    122.10391    -1848.292    1854.4666    507.73646    40.980611 
136776000    270.93096    320.14865    482.40054   -1846.9311    1861.4608   -162.25189    41.177349 
136780000    274.09147    323.90191    391.39858   -1847.1768    1865.4822   -67.496669     40.77802 
136784000    243.16294    407.36278    275.54015   -1841.2637    1869.5741    131.82263    41.227952 
136788000    319.19168    398.78694    231.48397   -1856.9629    1858.0665    167.30297    40.998265 
136792000     298.2337    264.54133    643.48016   -1864.6527    1873.2601   -378.93884    40.837653 
136796000    261.55017    280.16038    184.97067   -1865.9664    1881.1929    95.189714    40.893772 
136800000    245.41633    180.61291    292.53708    -1866.041    1898.1955   -111.92417    41.023421 
136804000    303.01494    568.51759    949.47697    -1878.694    1876.9622   -380.95938    41.093429 
136808000    279.34277    764.74529    418.07998   -1877.2334    1887.2289    346.66531    41.018926 
136812000    245.39874    323.32687    330.24112   -1888.2974    1909.4922   -6.9142513    41.201003 
136816000    240.13809    632.76093    313.50805   -1899.5981    1918.9534    319.25288    41.252375 
136820000    297.39101    578.14472    737.52496   -1921.8121    1932.3646   -159.38025    41.094843 
136824000    289.48343    457.53747    658.62659   -1923.1358    1930.0559   -201.08912    41.277268 
136828000    245.21778    418.35397    186.12695   -1937.9729    1970.6956    232.22702    41.404929 
136832000    270.81375    490.22569    821.05442   -1954.8342    1972.1839   -330.82873    41.181552 
136836000    322.13799    155.36324    478.97583   -1976.8791    1980.2758    -323.6126     40.96992 
136840000    286.77728    389.62338    320.16013   -1983.1961    1988.1021    69.463254    40.921315 
136844000    345.59097    509.97193    255.99474   -1997.5831    1988.5448    253.97719    41.033401 
136848000    308.90784     453.8569    816.97988   -1988.3642    1994.7542   -363.12298    41.020414 
136852000     239.3867    506.20778    248.84897   -1998.5454    2029.2359    257.35881    41.409998 
136856000    273.36553    355.34767    646.79533   -2019.0151    2032.5082   -291.44765    41.518127 
136860000    269.23189    869.98886    703.78287   -2029.6787    2048.7822    166.20598    41.592442 
136864000    265.93326     324.0953    866.25831   -2051.1532    2067.1045   -542.16301    41.801533 
136868000    267.97585    449.71227    641.92883   -2060.0694    2072.8477   -192.21656    41.808463 
136872000    257.11982    259.62831    287.82695   -2064.0012    2092.9551   -28.198642    41.466256 
136876000    246.99766    205.23584    449.56223   -2072.7277     2106.525   -244.32639    41.189895 
136880000     256.0399    222.83043    209.65564   -2081.6177    2097.8268    13.174787    41.221501 
136884000    303.10086    276.94481    479.12253   -2081.3546    2082.8103   -202.17772    41.286683 
136888000    340.59188    720.27122    204.68221   -2095.6551    2095.7476    515.58902    41.277445 
136892000    258.70624    366.48484    429.89261   -2104.3421    2125.4467   -63.407769    41.193939 
136896000    322.25216    863.46898    317.39694   -2141.6655     2143.355    546.07205    40.810667 
136900000    288.64449    481.86125    505.97616    -2128.338    2150.8125    -24.11491    41.199038 
136904000    278.38626    254.80161    204.03022   -2146.6064     2159.419     50.77139    40.900322 
136908000    302.19781    443.96936    364.97549   -2164.3363    2177.2877    78.993872    41.284137 
136912000    274.69583    247.86074    323.03773   -2166.6704    2178.4919   -75.176992    41.545438 
136916000    284.45335     444.9118     310.8409   -2158.6645    2172.3273     134.0709    41.541885 
136920000    264.20901    425.37434    561.13343   -2173.3672    2189.1621   -135.75908    42.233089 
136924000    281.30323    296.40523    782.72654   -2203.9927    2198.7382    -486.3213    42.488352 
136928000    328.61602    419.37849     684.8296   -2216.1997    2216.1045   -265.45111    42.146415 
136932000    277.58293    146.06367    356.41903   -2227.6713    2234.1333   -210.35535    42.055988 
136936000    245.60732    174.90668    244.92252     -2236.74    2265.0078   -70.015843    41.984757 
136940000    249.39785    551.94486    215.44996   -2249.6831    2265.3819     336.4949    42.189482 
136944000    241.36321    227.13193    269.95291   -2260.3029    2281.2354   -42.820975     42.43616 
136948000    279.73329    967.12134     625.4343    -2274.476    2285.7052    341.68704    42.262473 
136952000    312.09909    505.21311    102.63967   -2287.3849    2283.8363    402.57343    42.067999 
136956000    297.85895    300.89826    699.27287   -2313.0472    2296.4535   -398.37461    42.164152 
136960000    323.78363    156.33776    524.03354   -2323.6109    2307.2322   -367.69578    42.229584 
136964000    301.38013    612.59404    264.89053   -2318.4131    2316.4886    347.70351    42.187112 
136968000     285.9397    712.27425    212.97384   -2313.7159    2323.2684    499.30041    42.314452 
136972000    274.16749    698.03729    211.47181   -2338.9818    2340.7887    486.56547    43.015918 
136976000     293.7896     404.8356    445.46004   -2337.8742    2348.2121   -40.624435    43.038623 
136980000    260.38539    645.12639    294.59667   -2339.6157    2354.2564    350.52972    42.861131 
136984000    268.52951     641.6344    349.95167   -2341.2108    2369.9566    291.68273    43.295035 
136988000    269.31779    276.20412    386.70729   -2360.1497    2379.4312   -110.50317    43.430936 
136992000    273.83792     821.2602    292.02334   -2387.4561    2396.8226    529.23686     43.30315 
136996000    266.43118    394.78364    388.93076   -2404.9655    2422.4193    5.8528753    43.472915 
137000000    241.34834    215.20129    627.37492   -2426.0077    2441.9685   -412.17363    43.425646 
137004000    272.26312    200.27631    584.01506   -2417.9429    2435.6401   -383.73875    43.419632 
137008000    257.81009    302.90053    378.55625   -2428.8132    2449.5293   -75.655717    43.541174 
137012000    311.13334    149.90742    584.86071   -2442.9672    2433.1436   -434.95329    43.491869 
137016000    290.91792    715.65961    321.72064   -2442.9129    2448.9479    393.93896     43.40291 
137020000    264.01404    136.40331    152.23871    -2438.237    2463.6015     -15.8354    43.364572 
137024000    272.86939    367.22085    231.14741   -2451.6572    2472.5838    136.07344    43.122686 
137028000     281.0572    554.40597    219.02313   -2486.8361    2491.0587    335.38283    43.411207 
137032000    329.04928    465.74184    702.05241   -2517.0562    2515.6552   -236.31057    43.157553 
137036000    268.17195    296.79663    720.78593   -2520.9979    2540.8052    -423.9893    42.954536 
137040000    261.43529    657.28211    390.51832   -2535.4846    2559.1524    266.76379    43.114976 
137044000    312.29773    355.03088    262.34821    -2549.771    2540.0268     92.68267    42.963538 
137048000    283.03677    460.55703    322.11742   -2556.2617    2555.1877    138.43961    43.219334 
137052000    299.21654    184.47187    462.55611   -2571.3882    2578.2693   -278.08424    43.001305 
137056000    272.19242    787.09176    310.35348   -2576.3131    2595.3754    476.73828    42.870533 
137060000    271.69081    1078.5962    278.82189   -2603.7099    2605.9073    799.77431    43.032356 
137064000     234.9822    526.70386    441.12036   -2618.5863    2648.8651    85.583502    42.785309 
137068000    252.51449    535.47654    155.35961   -2636.4027    2665.8459    380.11693    43.079898 
137072000    285.36413    372.76994    276.15379    -2639.114    2653.5208    96.616152    43.072999 
137076000     299.4433    959.48379    718.74306   -2657.4093    2650.7193    240.74073    42.999688 
137080000    273.47757    607.23203    861.38594    -2656.675    2665.3054   -254.15391    43.114513 
137084000    317.80721    290.05593    666.42287   -2660.7035    2661.3537   -376.36694      43.1548 
137088000    276.27593    284.75817    568.93189   -2672.0519    2677.8597   -284.17371    43.034238 
137092000    263.46268    649.52987    247.50913   -2681.9031    2687.9435    402.02074    42.946242 
137096000    274.87267    377.15724    493.72746   -2706.0869    2707.1275   -116.57022    42.682342 
137100000    301.68298     247.3896    195.16352    -2715.317    2705.3896     52.22608    43.087316 
137104000    278.57075     227.8511    339.90877   -2704.3153    2719.5393   -112.05767    43.070698 
137108000    322.35885    578.99239    488.71087   -2714.4984    2712.0861    90.281528    43.231486 
137112000     283.1885    166.26042    521.91557   -2707.4216    2710.0827   -355.65515    43.183336 
137116000    321.07261    562.68187    861.71348   -2719.7595    2714.2369   -299.03161    43.072608 
137120000     308.9131    387.51853    666.69433   -2733.8127    2739.9182    -279.1758    42.790194 
137124000    301.78611    681.54433    527.72881   -2736.0117      2753.19    153.81552    42.903066 
137128000    246.78878    892.15944    506.46752   -2740.5313    2755.5673    385.69192     42.80664 
137132000    281.49884    402.89138    182.99158   -2753.4159    2762.9169    219.89981    42.775146 
137136000    257.29253    476.61232      93.4809    -2748.755    2764.8425    383.13142    42.758559 
137140000    257.60853     710.7687    237.74694   -2771.2593    2782.1946    473.02176    42.664904 
137144000    261.94763    301.19519    314.55312   -2768.6565    2790.1482   -13.357926    42.986211 
137148000    287.00091    427.17519    394.37558   -2783.2119    2792.8621    32.799611    42.936683 
137152000    347.49711    641.56578    426.02863   -2788.4255    2784.8716    215.53716    42.991683 
137156000    325.98328    491.57508    516.27696   -2791.4045    2782.3547   -24.701879    42.993709 
137160000    289.80106     211.6509    373.09885   -2793.9475    2805.9862   -161.44795    43.196894 
137164000     303.1977    292.31307    370.87672   -2798.2873    2806.5278   -78.563643    43.440003 
137168000    310.46647    566.97201    502.05722   -2822.6566    2813.9194    64.914787    43.356641 
137172000    282.49096    116.20512      139.223   -2831.3544     2852.632    -23.01788    43.256742 
137176000    327.98245    282.52333    467.54014   -2868.5986    2864.4974   -185.01682    43.430924 
137180000    276.45899    857.96269    368.07191   -2863.2469     2868.553    489.89078    43.231663 
137184000    304.99119    311.79764    596.24322   -2872.0118    2869.5666   -284.44558    43.105932 
137188000    292.03841    574.93679    151.86422   -2882.1529    2891.2579    423.07257    43.204244 
137192000    296.44607    496.57632    363.35755    -2889.388    2904.6381    133.21877    43.146056 
137196000    266.40971    452.13902    403.22198   -2900.2131    2919.3663    48.917037    43.081783 
137200000    314.04196    289.11744    366.13734   -2946.9944     2934.424   -77.019894     43.07645 
137204000    331.87106     524.3665    386.24569   -2950.4809    2941.7081    138.12081    43.093783 
137208000    257.42924    348.00046    310.22954    -2941.602    2958.0522    37.770914    43.296612 
137212000    281.43255    630.47466     151.2558   -2956.8173    2959.1555    479.21886    43.351414 
137216000    324.17939    386.03745    483.60573   -2969.4385    2966.2043   -97.568273    43.240527 
137220000    289.76084    446.56309    384.15816   -2967.8642    2981.2884    62.404929    43.336406 
137224000    309.74576    519.01722    252.16786   -2970.7033    2978.5139    266.84936    43.334914 
137228000    264.71641    346.15958    539.32546   -2971.7455    3000.0045   -193.16588    43.342981 
137232000    235.92019    292.26702    457.87893   -2990.2571    3000.9352   -165.61191     43.18233 
137236000    274.13444    554.01949    166.10436   -3001.3914    3007.9862    387.91513      42.9238 
137240000    302.95101     291.6952    426.17739   -3022.1735    3023.5917    -134.4822    42.893639 
137244000    277.96248    340.90326    283.22439   -3032.9454    3047.4781    57.678873    42.872938 
137248000    259.93584     362.9388    305.88162    -3029.852    3054.3384    57.057181     42.92617 
137252000    306.43183    319.06687      417.449   -3033.1237    3042.9758   -98.382134    43.015945 
137256000    244.50736    548.22506    209.58631   -3036.4096    3055.3226    338.63875    42.772618 
137260000    286.98318    441.62772    274.30283   -3046.8939     3055.667    167.32488    42.773004 
137264000    285.07398    239.33316    687.51625   -3047.0656    3058.6964   -448.18309    42.639377 
137268000    271.26538    511.86997    939.65045    -3052.933    3068.8551   -427.78048    42.621349 
137272000    317.21579     456.7207     455.9729   -3072.4037    3066.8273   0.74780034     42.74151 
137276000    252.36928    134.90985    375.72208   -3065.2519    3079.3407   -240.81223     42.78812 
137280000    287.19038    457.96047    170.53185   -3077.9833    3087.0162    287.42862    42.726072 
137284000    268.67766    270.80818    573.59826   -3079.4326    3091.6214   -302.79008    42.995067 
137288000    289.65425    682.16414    305.06574   -3086.7337    3099.4894    377.09839     43.18758 
137292000    251.98538     683.1882    532.85176   -3087.4569     3111.438    150.33645     43.10391 
137296000    326.94735     734.3865    304.39969   -3098.9388    3099.0271    429.98681    43.187743 
137300000    315.73162    204.34087    692.17322    -3104.267    3108.5238   -487.83235    42.822108 
137304000    275.63941    661.66729    772.14571   -3085.9478      3104.85   -110.47842    42.773063 
137308000    247.33912    346.77124    397.84955   -3092.8492    3102.4787   -51.078305    42.944363 
137312000    245.43097    361.08769    129.54308   -3081.9514    3112.5537     231.5446    42.877938 
137316000    310.68707    519.06745    323.46052   -3093.4189    3108.4634    195.60693    42.607284 
137320000    297.97612     295.2169     561.3208   -3092.8537    3107.3785    -266.1039    42.726903 
137324000    275.28469    195.66721    848.55353    -3104.108    3119.9413   -652.88632    42.581304 
137328000    278.35797    759.41401    1172.0206   -3105.8446    3125.3969   -412.60654    42.547759 
137332000    311.57116    299.26725    715.43675   -3100.7038    3111.7884    -416.1695    42.495112 
137336000    282.11704    569.00085    222.98478   -3108.2417    3119.1591    346.01607    42.319823 
137340000    317.00985    918.53622    1007.5049   -3119.3893    3122.4042   -88.968725    42.222373 
137344000    264.97174    466.39667    652.32916   -3122.6446    3133.4869   -185.93249    42.266222 
137348000    329.15748    285.00119    229.75061   -3137.0116     3136.978    55.250584    41.963502 
137352000    227.75423    407.10453    278.83091   -3117.7503    3142.4057    128.27362    42.098086 
137356000    282.81928    737.36678    260.30494   -3161.3388    3175.8451    477.06183     42.15794 
137360000    253.95912    552.75495     455.7437   -3164.2971    3178.4698    97.011255    42.223117 
137364000    322.81774    756.75081    329.54828   -3183.3616    3186.7892    427.20252    42.274099 
137368000    319.21716    598.13018    685.53949   -3187.5184    3192.8303   -87.409313    42.327675 
137372000    336.22948    545.95721    911.75918   -3189.5409    3184.2671   -365.80197     42.24033 
137376000    273.48189    333.64148    338.69255   -3188.6301    3211.1036    -5.051065     41.98743 
137380000    281.55879    610.08846    481.82241   -3186.0626    3215.5487    128.26606    41.985295 
137384000    296.61518    316.40187    1024.6234   -3202.7508    3214.2962    -708.2215    41.935038 
137388000    312.73372     398.8621    116.06802   -3205.8407     3207.579    282.79407    42.208635 
137392000    258.84884    556.07846    918.20431     -3226.03    3238.2732   -362.12585    42.217819 
137396000     291.7655    539.42923    654.90666   -3230.8279    3249.5102   -115.47743     42.23102 
137400000     260.9306    523.42164    410.16812   -3238.5076    3258.8385    113.25352    42.138869 
137404000    285.42751    548.65819    302.92417   -3257.6547    3269.7671    245.73402    42.027117 
137408000    243.09866    409.23561    563.37404   -3257.7002    3289.5155   -154.13844    42.016035 
137412000    275.29303    455.69204    269.85996   -3286.2967    3302.9295    185.83208    42.326012 
137416000    304.85266     260.8901     253.4272   -3311.1781    3315.7809    7.4628973     42.22808 
137420000    270.57429    926.19558    371.86811   -3313.4179    3333.9455    554.32747    42.106702 
137424000    314.14441    352.63634    638.75716   -3341.8627    3349.2423   -286.12082    41.907873 
137428000    340.87251    611.41427    226.30037   -3375.8813     3366.081     385.1139    42.015256 
137432000    310.58145    210.18215    278.07192   -3380.5609    3387.1056    -67.88977    41.996082 
137436000    312.09783    551.60288    618.95844   -3395.4689    3406.3529   -67.355564    41.922518 
137440000    314.92643    338.18302    550.66146   -3400.5093     3409.841   -212.47844     41.91021 
137444000    316.55217    301.60323    820.97052   -3395.1553    3394.7269   -519.36729     41.84868 
137448000    278.63714    950.24406    445.65608    -3383.032     3396.954    504.58798    41.980188 
137452000    242.24483    187.94351    194.36261   -3388.7272    3408.7984   -6.4190922    41.992721 
137456000    268.83029    746.64486    365.28607   -3420.1723    3432.6534    381.35879     41.97442 
137460000    278.22285     409.6788    286.96209   -3427.6301    3448.9014     122.7167    42.115851 
137464000    247.16923    697.73941     191.0288    -3432.593    3465.3454    506.71061    42.161548 
137468000    268.69311     304.8212    641.43492   -3432.5677     3451.368   -336.61372    42.018016 
137472000    265.33114    903.83752    403.60075    -3441.703    3459.9074    500.23678    41.893288 
137476000    292.48111     152.0688    871.83123   -3459.5062    3463.7658   -719.76243    41.942248 
137480000    319.49288    232.99507    659.68668    -3462.023    3461.4349   -426.69161     41.88042 
137484000    277.50115    562.00277    251.67977   -3460.8775    3471.2483      310.323    41.968096 
137488000    297.96306    260.66193    538.46015   -3470.2203    3470.2416   -277.79822    41.924922 
137492000    282.67291    393.76372     581.6471   -3463.4705    3474.2883   -187.88338    41.783658 
137496000    332.60195     813.3315    251.80956   -3455.2753    3451.3486    561.52194    41.839434 
137500000    286.56269    487.64174    655.88207   -3460.8342     3461.596   -168.24033    42.103808 
137504000    293.65008    527.96473    557.73399   -3465.2487    3473.8131   -29.769263    41.974967 
137508000    263.19629    489.95991    637.38157   -3472.1795    3485.5873   -147.42166    42.046572 
137512000    301.37719    148.31775    1188.2564    -3476.645    3483.5068   -1039.9387     41.78214 
137516000    290.15567    304.83829    193.80526   -3478.5942    3489.7111    111.03303    41.782312 
137520000    345.57278    854.17954    554.08002   -3481.6613    3479.2579    300.09952    41.841608 
137524000    313.14682    632.45162    426.94989   -3488.3008    3486.1331    205.50173    41.901975 
137528000    295.22127    417.68261    822.63995   -3492.7495    3496.9195   -404.95734    41.770036 
137532000    297.51538    400.62856    173.61712   -3510.3217    3501.6982    227.01144    41.782682 
137536000    271.76824    682.11258    487.94603   -3509.8018    3519.9006    194.16655    41.814265 
137540000    299.41925    400.61038    201.96622   -3517.5799    3527.6403    198.64416    41.780544 
137544000     294.2033    760.63803    344.74758   -3525.0442    3537.6052    415.89046    41.823196 
137548000    305.77352    469.49283    459.61016   -3534.2989    3543.4725     9.882676    42.035696 
137552000    286.68365     452.6042    889.02366    -3544.177    3547.8151   -436.41946    42.131862 
137556000    322.61831     371.3904    666.84622   -3563.2829    3565.6251   -295.45582    42.246236 
137560000    302.90613    552.48235    785.67475   -3567.0919    3568.5312    -233.1924    42.525301 
137564000    284.69953    237.29497    320.12458   -3577.7998    3589.4653   -82.829605    42.537285 
137568000    284.15286    430.86557    345.94943   -3571.7126    3584.6912    84.916139    42.494169 
137572000    280.46399    399.14155     426.0645   -3576.2269     3590.242   -26.922947    42.505743 
137576000    293.60764    433.30687    478.43342   -3580.8519     3601.648   -45.126556    42.633978 
137580000    291.37599    374.16573    436.32587   -3593.8602    3604.5791    -62.16014    42.629012 
137584000    283.37361    513.04719    386.88984   -3611.3578    3611.8666    126.15735    42.495821 
137588000    286.64731    109.80566    851.09315   -3604.1655    3618.1182   -741.28749    42.360239 
137592000    294.43243    644.72231    204.40139   -3616.0473     3619.651    440.32092    42.567741 
137596000     291.5125    342.71356    462.75614   -3611.7231    3624.0728   -120.04258    42.674765 
137600000    312.97108    516.85361    403.00687   -3609.9847    3621.9866    113.84674    42.623182 
137604000    300.65704    269.95041     455.3282   -3603.2227    3606.3432   -185.37779    42.578166 
137608000    269.46631    244.83065     557.0876    -3617.821    3628.1108   -312.25695    42.523855 
137612000    284.53798    487.61836    104.83716    -3642.011    3639.5609     382.7812    42.557804 
137616000    331.08867    410.67343    671.20147   -3642.7088    3645.4022   -260.52804    42.542677 
137620000     254.1315    370.25484    245.62464   -3645.4824    3670.3291     124.6302    42.475978 
137624000     247.5097    204.64933    342.71023   -3650.4706    3680.8214    -138.0609    42.453585 
137628000    302.47924    194.97502    183.79267   -3682.9679       3694.7    11.182353    42.592244 
137632000    316.21368    596.79572     748.2923   -3708.2063    3713.5394   -151.49658    42.719391 
137636000    307.01611    707.22622    626.20113   -3705.5709    3721.7204      81.0251    42.817648 
137640000    297.40585    615.22423    575.43363   -3715.2786     3733.421    39.790605    42.839998 
137644000    280.24239    498.21488     689.6926    -3736.483    3742.1427   -191.47772    42.974946 
137648000    242.96408     423.3187    704.25887   -3734.3302     3748.479   -280.94017    42.918784 
137652000    298.15726    328.00589    723.71138   -3746.4711     3751.487   -395.70549    42.919416 
137656000    304.40407    760.29783    256.56136   -3766.8719    3767.6744    503.73646    42.934827 
137660000    320.35942    650.62692    364.31829   -3785.4014    3785.8433    286.30863    43.150997 
137664000    291.72878    458.15927    269.51112   -3793.3334    3797.2238    188.64815    43.167179 
137668000    264.28914    210.02047    465.09614   -3778.6212    3795.8589   -255.07566    43.120113 
137672000    253.02321    505.61044    560.66118   -3771.7593    3806.6345   -55.050738    43.022669 
137676000    280.96325    389.49072    234.61675   -3763.2513     3794.804    154.87397    42.940193 
137680000    270.72904    250.16543    540.18029   -3783.8099    3793.2062   -290.01486    42.875499 
137684000    298.81396    348.23626    147.33846    -3796.972    3802.9166    200.89779    42.922217 
137688000    285.42095    410.66349    348.99345   -3808.0408    3812.9196    61.670041    43.096505 
137692000    275.23392    589.23601    374.42551   -3794.3673    3806.1337    214.81051    42.995627 
137696000    260.92784     210.4037    373.82901   -3807.0727    3827.4081    -163.4253    42.964678 
137700000    316.20326     616.9531    501.76498   -3828.2178    3846.5345    115.18812    42.815055 
137704000    259.78926    573.57983    555.25956   -3833.8363    3851.8932    18.320272    42.863185 
137708000    269.07587    672.82093     437.7556   -3832.6523    3855.7437    235.06533    42.861994 
137712000    297.15744    287.56927    247.65046   -3855.8773    3862.8192    39.918812    42.755284 
137716000    246.96219    460.85934     459.3657   -3842.0042    3876.7884    1.4936402    42.571728 
137720000    311.31368     424.6451    265.08321   -3866.8465    3876.3809     159.5619    42.534912 
137724000     286.3106    435.31078     363.5296   -3872.0999    3873.0318    71.781187    42.496316 
137728000     331.7591    293.54111    377.27512   -3884.2462    3886.9998   -83.734009    42.348261 
137732000     336.2889     607.9202    538.83909    -3910.544    3900.4785    69.081117    42.024286 
137736000    275.92467    272.26403    582.20762   -3914.5115    3918.8647    -309.9436    42.013069 
137740000    314.19598     120.9252    414.06401   -3916.9452    3930.0633   -293.13881    41.970148 
137744000    287.79158    943.85137    285.26215   -3932.5415    3930.1555    658.58922    41.990009 
137748000    242.03627    514.31722    487.25726   -3920.0226    3935.5444    27.059963    42.119759 
137752000    260.60414    702.11748    381.03682   -3925.3877    3941.6095    321.08065    42.174556 
137756000     249.0475    223.98467    525.72924   -3911.2126    3946.3614   -301.74457    42.174274 
137760000    270.40087    395.91228    451.25107   -3916.7835    3939.3344   -55.338793    42.216836 
137764000     264.3431    147.28174    669.26578   -3934.9564    3953.2918   -521.98405    42.144317 
137768000    283.00583    427.74707    293.94014   -3939.0132    3958.6601    133.80694    42.115535 
137772000    276.99999    355.55996    455.89271   -3966.7806    3991.2705   -100.33275    42.200235 
137776000    289.99462    476.03228    373.74874   -3991.9983    3999.5002    102.28354    42.344617 
137780000    327.20491     483.1351    481.22535   -4011.1977    4010.4131    1.9097563    42.336288 
137784000    288.16002    577.02673    353.57486   -4014.9764    4024.5529    223.45186    42.497357 
137788000    264.17557    673.32148    202.04495   -4024.7083    4039.1867    471.27653    42.544705 
137792000     276.0041    766.92118    924.30736   -4022.3493    4047.4633   -157.38618    42.438217 
137796000    271.30699    217.54675    376.08087   -4038.0076     4053.175   -158.53412    42.491869 
137800000    310.95311    417.64749    291.90575   -4053.7379    4063.8842    125.74174    42.454768 
137804000    304.19981    337.25916    240.92609   -4056.3458    4060.5337    96.333071    42.464669 
137808000    265.83965    423.52544    552.09618   -4051.1722    4071.7893   -128.57074    42.504233 
137812000    260.46925    854.98736    580.91893   -4049.7382    4079.9259    274.06842    42.574886 
137816000    264.44974    298.36996    496.15144   -4058.8499    4082.1258   -197.78148    42.725595 
137820000    337.69014    156.63809    425.30256   -4084.7893    4087.4086   -268.66446    42.952548 
137824000     252.0494    433.89577     379.5558   -4083.0223    4115.1593    54.339965    42.960098 
137828000     268.5689    445.81802    229.92233   -4105.6756    4119.9721     215.8957    42.889087 
137832000    291.93287    440.09239    226.18768   -4120.6312    4129.0495     213.9047    42.977386 
137836000    311.35991     571.1784     698.3406    -4142.384    4153.0593   -127.16219    42.776709 
137840000    292.96111    354.99308     497.2592   -4152.5332    4169.6245   -142.26612    42.875844 
137844000    293.86933    864.64423    574.31911   -4156.5737    4171.9389    290.32512    42.845636 
137848000    333.51404    176.77524     551.2893   -4170.3286    4167.9469   -374.51406    42.805829 
137852000    273.37157    605.21353    615.27051   -4172.0506    4178.7741   -10.056977    42.875263 
137856000    309.08643    818.53546    685.96989   -4184.1881    4187.3029    132.56557     42.76331 
137860000    261.27612     505.8654    263.10206   -4171.7492    4200.8296    242.76334    42.789685 
137864000    316.27591    564.52495    282.08564   -4186.0669    4199.9762     282.4393    42.839418 
137868000    262.01174    237.05171    646.82662   -4192.9715    4202.2517   -409.77492    42.740967 
137872000    282.53024    877.77721    256.07898    -4199.277    4200.3732    621.69823    42.800959 
137876000    282.42247    797.60415    1025.1563   -4195.3232    4199.0973   -227.55211    42.678682 
137880000    362.55073    324.72483    636.46855   -4233.8821    4208.2171   -311.74372    42.496272 
137884000    296.51591    814.43308    470.36479   -4229.7663    4247.0063    344.06828     42.37522 
137888000     263.8086     325.9999    277.55386   -4256.6973    4271.2945    48.446042    42.447555 
137892000    313.99041    841.42656    399.21592   -4272.4937    4268.9121    442.21064    42.569801 
137896000    235.06424    230.77632    535.94712   -4262.5367    4283.7241    -305.1708    42.558037 
137900000    310.01178    492.97102    707.17303   -4274.3636     4285.453   -214.20201    42.348873 
137904000    301.32241    400.64418    176.39959   -4284.8866    4287.3682    224.24459    42.419671 
137908000    271.16513    517.40267     410.7248   -4298.6428     4320.911    106.67787    42.364694 
137912000    280.75551    380.08046    362.08527   -4314.8045    4344.0701    17.995193    42.358278 
137916000    293.67634    538.72499    395.22027   -4351.5629    4359.7834    143.50473    42.345487 
137920000    293.76371    352.66816    261.69166   -4363.6666    4369.5339    90.976503    42.298269 
137924000    266.80411     350.1793    197.03903   -4355.8476     4381.878    153.14027    42.305735 
137928000     276.0026    618.24691     515.0618   -4382.1113     4394.025     103.1851    42.372824 
137932000    256.39205    386.23662    142.86502   -4391.2459    4415.0639     243.3716    42.250106 
137936000    273.08481     199.9914    249.29577   -4404.3132     4426.031   -49.304366    42.164137 
137940000    282.18423     480.7516    488.56577   -4446.8495    4450.1707   -7.8141621    42.148013 
137944000    330.74996    725.94187    1069.9579   -4462.3194    4464.8043   -344.01607    42.117903 
137948000    310.41891    738.69974    117.77785   -4467.5866    4481.6466    620.92188    42.052119 
137952000    296.95498    613.49089    238.05125   -4478.0467    4495.5424    375.43964    42.142126 
137956000    270.73879    428.15685    410.20609   -4471.3075    4500.3288    17.950762    42.188786 
137960000     278.3038    259.57875    353.61987   -4486.4144    4494.8522   -94.041124    42.231276 
137964000    268.83382     406.3997    374.79949   -4496.2204    4503.8581    31.600211    42.255287 
137968000    291.19735    403.32813    618.98977   -4490.6013    4514.3891   -215.66164     42.27293 
137972000     265.5657    600.15109    395.43644    -4508.051    4514.9836    204.71464    42.386107 
137976000    264.95945    672.52328    323.84991   -4530.5665    4543.2984    348.67337    42.313478 
137980000    297.67088    424.81418    380.44848   -4554.6927    4571.0121    44.365702    42.317518 
137984000    279.10645    756.23415    136.79246   -4567.1033    4577.3108    619.44169    42.555389 
137988000     275.4117    204.08618    546.35473   -4555.8629    4559.9454   -342.26854    42.699956 
137992000     279.9878    244.89737     677.0549   -4566.7641    4580.4751   -432.15752    42.716312 
137996000    249.68552    146.32689    284.43644   -4580.5481    4604.0986   -138.10955    42.637687 
138000000    272.58094    234.89132    204.27461   -4580.8007    4606.4331    30.616713     42.60724 
138004000    300.06544    401.65756    209.24896     -4608.39    4613.6278    192.40859    42.640317 
138008000    273.96641    654.55095    191.70455     -4611.96    4629.6413     462.8464    42.681974 
138012000    294.69175     263.9922    439.81967   -4627.5909    4642.6357   -175.82746    42.648431 
138016000    291.80795    855.61039    912.36996   -4643.0023    4652.3955   -56.759571    42.618935 
138020000     287.8621    528.55717    745.15884    -4647.285    4661.1559   -216.60167    42.579421 
138024000    279.76463    748.42521    469.00076   -4660.7654    4673.3296    279.42445    42.622878 
138028000    311.69998    794.19986     340.2754   -4670.6953    4674.9347    453.92446    42.775482 
138032000     258.0544     342.2949    147.89057   -4666.4778    4689.8445    194.40433    42.678364 
138036000    292.51039     254.9449    249.18228   -4685.5177    4700.8071    5.7626202    42.513849 
138040000    267.00279    555.11174    716.63657   -4689.0742     4705.414   -161.52483    42.452009 
138044000    273.74757    661.65785     339.2673   -4711.6802    4722.6426    322.39056     42.38423 
138048000    330.96134    489.54099     687.2514   -4736.9782    4738.5683   -197.71042     42.31054 
138052000     320.0639    601.53864    263.50915   -4743.3429    4748.7179    338.02949    42.337712 
138056000    296.97153    419.90409    409.45692    -4741.186    4749.5307    10.447174    42.309707 
138060000    316.51643    506.79934    415.83311   -4751.7167    4759.3425    90.966225    42.242614 
138064000    318.45348    351.78928    373.98973   -4772.4457    4778.7668   -22.200452    42.146999 
138068000    294.91022    592.92275    264.16025   -4776.4967    4783.7909     328.7625    42.086195 
138072000    292.28215    604.70054    184.84355   -4785.8535    4788.6155    419.85699    42.268284 
138076000    311.41058    165.91291    443.65872   -4783.3333     4791.351   -277.74581    42.229593 
138080000    264.47838    272.87642    534.32747    -4785.623    4802.4952   -261.45105    42.339769 
138084000    306.02502    1096.3314    420.31572   -4816.5901    4823.2367    676.01571    42.573446 
138088000    318.97206    216.55273    625.27122    -4833.996    4839.8049   -408.71849      42.5977 
138092000    313.50649    327.51524    569.17119   -4855.7949    4846.9294   -241.65595    42.499364 
138096000    294.33527    823.76068    612.96732   -4857.6949    4869.7335    210.79336    42.453636 
138100000    271.04902    334.29286    336.36453   -4859.1585    4879.2175   -2.0716763    42.444273 
138104000    312.84948    637.46317    349.21405   -4874.1764    4873.7463    288.24912    42.339724 
138108000    313.11956    309.35351    158.46291   -4889.3692    4884.9543    150.89059    42.440169 
138112000    325.94326    835.42704    254.41122   -4891.9945    4885.8417    581.01582    42.344083 
138116000     337.2708    700.20133    256.08265   -4896.7148    4899.2965    444.11868     42.30254 
138120000    308.66329    443.86804    221.41958   -4917.4437    4916.0914    222.44846    42.356598 
138124000    300.99838    494.40629     376.0475   -4906.7527     4923.634    118.35879    42.393326 
138128000    297.77453    546.16995    907.61175   -4914.8071    4926.8891    -361.4418      42.2668 
138132000    311.11943    485.47356    354.59867      -4943.9    4942.8149    130.87489    42.385809 
138136000    328.81897     853.8316    397.09521   -4961.3805    4956.5535    456.73639    42.445911 
138140000    291.58796    663.41816    417.29744   -4961.4824    4968.8609    246.12072     42.57201 
138144000    306.04642    698.79037    460.15283   -4981.3602    4980.5038    238.63754    42.463183 
138148000    293.08926     790.2604        540.5   -4996.4509      5000.04     249.7604    42.576151 
138152000    291.90473    533.22263    189.68779   -5005.2474    5018.2761    343.53484    42.516653 
138156000    284.39745    728.81482    756.16386   -5008.6132     5023.682   -27.349038     42.60368 
138160000    287.03187    377.07194    332.62532   -5025.7116    5024.0644    44.446618    42.707619 
138164000    307.14111    367.05634    229.66617    -5027.436    5032.1137    137.39017    42.822026 
138168000    282.45355     376.3348    448.15498   -5046.5292     5067.308   -71.820174    42.918959 
138172000    288.46237    204.82289    438.02252   -5051.7175    5067.0373   -233.19963    42.875907 
138176000    278.10201    140.09575    652.09042   -5052.0046    5073.8296   -511.99467    42.720983 
138180000    296.83032    175.56321     434.6776   -5071.0119    5082.9969   -259.11439    42.810826 
138184000     303.3534    795.67434    608.32598   -5094.3199    5099.9773    187.34835    42.922721 
138188000    249.25996    377.61446    554.71452   -5087.4416     5107.758   -177.10006    42.867515 
138192000    266.68623    668.63037      240.843   -5099.1779    5121.8244    427.78736    42.817262 
138196000    278.31751    670.07675    210.35492   -5106.7776      5127.89    459.72183    42.664791 
138200000    317.55453     600.9549    277.05081   -5132.1266    5139.2523    323.90409    42.705555 
[...]
167296000    268.29263    411.48069    222.85688   -79660.151    79704.396    188.62381    42.505214 
167300000    224.18809    524.04472    387.77763   -79660.914     79699.38    136.26709    42.500595 
167304000    288.75955    326.85562    286.34994   -79680.998     79704.49    40.505681     42.49286 
167308000     223.0721    243.48892    182.06268   -79679.687    79728.373    61.426246    42.491464 
167312000    270.18456     639.3512    314.93796   -79693.297    79723.301    324.41324    42.491753 
167316000    267.36013    542.96315    230.64849   -79721.166    79751.897    312.31466    42.487707 
167320000      269.978    480.57577    326.02662   -79743.989    79760.611    154.54914     42.48888 
167324000    265.44612    342.53396    142.90889   -79747.163    79775.344    199.62507    42.482929 
167328000    290.16989    565.69679    774.83417   -79756.921    79776.644   -209.13738    42.491564 
167332000    265.00957    161.94888    145.34506   -79754.903    79786.347    16.603825    42.488105 
167336000    332.73205    657.18841    180.07173   -79769.981    79792.572    477.11668    42.490887 
167340000    277.44222    667.77997    344.22855   -79778.052    79797.373    323.55141    42.493004 
167344000     269.7373     741.5027    437.16342   -79790.006     79800.91    304.33928    42.500523 
167348000    266.93843    451.32313    291.74863   -79798.283    79829.739     159.5745    42.509038 
167352000     270.5003    437.22985    347.13562   -79801.704    79839.751    90.094221    42.511725 
167356000    245.82819     412.6563    133.43215   -79802.838    79830.855    279.22415    42.515951 
167360000    265.04126    204.32911    374.30672   -79812.076     79840.56    -169.9776    42.521747 
167364000    239.08263    381.42674    252.78443   -79805.018    79847.134    128.64231    42.516464 
167368000    289.97379    550.78121    382.64909   -79825.227    79852.202    168.13212    42.520296 
167372000    280.57898    229.67267    426.16194   -79837.753    79864.538   -196.48928    42.530316 
167376000    254.77419    507.54693     329.7138   -79840.381    79871.507    177.83313    42.520606 
167380000    241.22668    300.88446    201.37315   -79836.148    79881.742    99.511304     42.53217 
167384000    340.93529    601.96239    527.26435   -79876.749    79883.231    74.698047    42.528044 
167388000    282.15065    169.68108    530.35317   -79870.569    79900.854   -360.67209    42.535248 
167392000    257.33355     868.3256    120.71403   -79886.424     79910.64    747.61157    42.534568 
167396000    290.16705    164.27432    515.29842   -79896.191    79927.465    -351.0241    42.538004 
167400000    269.94936    319.08498    469.09528   -79898.029    79928.165    -150.0103    42.533089 
167404000    262.39303    283.13108    326.02218   -79910.131    79934.057   -42.891099    42.532647 
167408000    311.58936     1154.324    719.27872   -79934.122    79944.846    435.04528    42.531263 
167412000    284.38052    293.72233    602.19547   -79932.659    79943.591   -308.47314    42.532046 
167416000    287.73722     430.1414    344.67412   -79939.409    79962.821    85.467277    42.533623 
167420000    227.72743    117.29403    206.15561   -79933.092    79972.271   -88.861581    42.537274 
167424000    273.68334    333.07819    325.08101   -79956.239    79974.859    7.9971814    42.537998 
167428000    306.48434    362.54174    389.19326   -79968.102    79988.212   -26.651522    42.529723 
167432000    260.25489    310.79363    664.65123   -79982.672    80010.813    -353.8576    42.526938 
167436000    293.35026    584.21381    410.72321    -79988.84    80016.842    173.49061     42.52619 
167440000    331.67315    246.36004    307.38686   -80019.848    80027.767   -61.026817    42.530983 
167444000    281.42574    523.16005    198.11724   -80023.271    80054.453     325.0428    42.537166 
167448000    285.70062    267.05227    375.62781   -80044.092    80067.647   -108.57554     42.53349 
167452000     307.0956    261.66988    767.47117   -80067.986    80084.173   -505.80129    42.526552 
167456000    321.03832    631.36651    468.11992   -80071.316    80093.672    163.24659    42.519949 
167460000    299.44466    469.35888     240.4633   -80098.465    80111.383    228.89558    42.524974 
167464000     268.7934     542.9385    887.01446   -80116.241    80147.639   -344.07596    42.530668 
167468000    270.56013    301.74559    538.26222   -80115.551     80146.56   -236.51663    42.515466 
167472000    293.58267    309.68071    309.16271     -80146.3    80160.564   0.51799425    42.514048 
167476000    256.00906    427.77347    422.26418    -80134.74      80169.9    5.5092848     42.50645 
167480000    308.70637    711.72586    701.78049   -80147.456    80154.611    9.9453653    42.511406 
167484000    259.88332    362.45077    512.79751   -80142.103    80175.116   -150.34674    42.512679 
167488000    305.44366    450.73151    218.84423   -80160.108    80194.383    231.88728    42.507815 
167492000    296.10383    550.12468    343.96307   -80183.945     80204.01    206.16161    42.512499 
167496000    311.48409    531.95125    572.75509   -80202.315     80223.11   -40.803845    42.511548 
167500000    310.74813    225.39278    613.74605   -80213.846    80237.562   -388.35328    42.510766 
167504000    288.20055    649.45268    204.17894   -80219.574    80248.349    445.27375    42.518175 
167508000    271.78013    244.27347    404.87117   -80217.497    80244.981    -160.5977    42.518499 
167512000    254.96386    401.69418    246.10767   -80225.232     80251.74    155.58651     42.52645 
167516000    275.01046    262.19758    212.73852   -80226.177    80260.983    49.459061    42.528538 
167520000    283.83674    531.91218    585.66999   -80231.566    80255.206   -53.757803    42.532639 
167524000    277.00022    505.75622    433.92417   -80253.212    80286.828    71.832054    42.535167 
167528000    303.39442     287.7228     399.7459   -80283.099    80299.025   -112.02311    42.532327 
167532000    348.66226    485.47292    481.67556   -80274.572    80276.907    3.7973551    42.533642 
167536000    297.37301    466.26988      390.986   -80285.676    80303.453    75.283882     42.53534 
167540000    283.76816    259.11898    476.29011   -80291.404    80314.079   -217.17112    42.540801 
167544000    293.70409    623.56575     657.2896   -80299.554    80316.425   -33.723849    42.539492 
167548000    268.34351    596.02901    317.08956   -80308.552    80329.938    278.93946     42.53139 
167552000    296.24251    86.278885     110.8816    -80322.79    80348.411   -24.602715    42.538575 
167556000    314.44508    898.24948    516.86068   -80328.875    80337.454     381.3888    42.546354 
167560000    292.99043    385.71169    339.60029   -80320.295    80348.309    46.111397    42.543797 
167564000    261.20419    414.14891    470.86115   -80334.718    80363.223   -56.712246    42.548115 
167568000    300.73761    559.91692    179.37184   -80345.695    80365.569    380.54508    42.544608 
167572000    299.71071    140.78853    691.12091   -80364.874    80381.755   -550.33238     42.54769 
167576000    248.32775    1111.1179    385.84258   -80369.582    80400.788    725.27535    42.537448 
167580000    267.85212    288.13752    304.83588   -80377.021    80411.426   -16.698364    42.546938 
167584000    300.22474    365.66851    185.55801   -80395.865    80423.124    180.11049    42.545712 
167588000    275.73563    286.42913    179.69609   -80399.435    80416.754    106.73304    42.562422 
167592000    279.42411    725.09698    303.37755   -80391.768    80425.637    421.71943    42.566664 
167596000    260.71683    266.77966     511.1964   -80408.845    80434.094   -244.41674    42.554951 
167600000    285.99267     645.9029    312.18086    -80409.25    80443.009    333.72203    42.553497 
167604000    249.87273    246.43286    160.17593   -80431.174    80458.026    86.256935    42.558237 
167608000    266.77493    338.11065    335.35552    -80438.62    80472.925    2.7551325    42.561688 
167612000    286.72005    512.84503    231.18214   -80443.999    80467.427    281.66289    42.565716 
167616000    282.24836    635.40971    243.68953    -80440.17    80452.842    391.72018    42.564227 
167620000    303.57768    926.55928    560.96713   -80438.526    80446.835    365.59215     42.57312 
167624000     262.0324    581.75844    667.70238   -80424.278    80456.849   -85.943936    42.571518 
167628000    260.35755    485.81438    322.22355   -80434.981    80465.021    163.59082    42.562977 
167632000    281.93001    644.19786    240.73653   -80457.093    80483.548    403.46134    42.558751 
167636000    282.33042    459.59103    473.67361   -80459.132    80487.151   -14.082575    42.558723 
167640000    281.62187    429.18927    618.23534   -80469.641    80491.251   -189.04606    42.553277 
167644000    316.59128    469.77543    496.26301   -80474.704    80490.932   -26.487578    42.547413 
167648000     287.9928    464.57033    657.24071   -80466.204    80492.606   -192.67038    42.548604 
167652000    281.06429     586.3322    612.43268   -80468.194    80496.477   -26.100477    42.549993 
167656000    275.88746    308.05076    218.79163   -80476.393     80499.36    89.259127    42.554696 
167660000    339.29564    325.02427    832.05584   -80469.735     80487.86   -507.03156    42.547919 
167664000    255.50521    664.38251    502.82997   -80458.403    80484.488    161.55253    42.549868 
167668000    311.91538    416.43738    932.57686   -80472.191    80478.804   -516.13947    42.562344 
167672000    303.10369    279.51576    355.46152   -80472.551     80489.96   -75.945752    42.558552 
167676000    282.31737    293.66375    296.10958   -80475.064    80487.316     -2.44583    42.554615 
167680000    310.74697    270.49156    1206.1058   -80471.569    80493.037   -935.61427    42.554254 
167684000     331.0259    320.37815    310.71468   -80482.566     80492.47    9.6634697    42.550691 
167688000    291.63538    447.72504    561.58305   -80490.697     80507.05   -113.85801    42.551283 
167692000    283.26573    357.16772     283.2811   -80500.788    80531.681    73.886623    42.551735 
167696000    281.20143    536.89672     294.8132   -80519.193    80534.328    242.08352     42.55816 
167700000     308.6074    772.65927      561.002   -80506.952    80522.189    211.65727     42.56103 
167704000    270.25997    367.46072    359.11328   -80519.827     80531.53    8.3474407    42.553082 
167708000    262.01218    407.63897    218.40641   -80546.921    80565.331    189.23256    42.554328 
167712000    294.36568    308.53297    1107.5113   -80554.332    80568.452   -798.97833    42.552297 
167716000    283.04775    155.82523    157.37542    -80571.06    80591.635   -1.5501898    42.546689 
167720000    282.25968    313.89225    466.48244   -80572.632    80584.732   -152.59019    42.546682 
167724000    272.41904    349.23149    521.61066   -80563.124    80593.198   -172.37916    42.537003 
167728000    294.55218      518.918    474.87536   -80574.542    80599.842    44.042644    42.548156 
167732000    304.82199    269.64767    300.18022   -80583.972    80609.895   -30.532547    42.558121 
167736000    240.86628     579.3633    174.58108    -80588.68    80618.734    404.78222    42.556405 
167740000    249.11236    244.71704    331.26216   -80588.095    80625.438   -86.545116    42.548285 
167744000    303.42993    699.88484    643.82457    -80601.64    80620.597    56.060276     42.54268 
167748000    222.07305    471.20689    231.52171   -80607.734     80639.06    239.68518    42.539998 
167752000    291.54687    544.94174    191.54892    -80621.56    80641.421    353.39283    42.534848 
167756000    309.64659     645.1489    795.65226   -80622.444    80635.095   -150.50336    42.535303 
167760000    279.29916    343.91517    152.48253   -80625.268    80657.928    191.43263    42.534203 
167764000    273.02609    473.08562    233.67378   -80629.298    80655.269    239.41184    42.533402 
167768000    271.80245    327.63512    264.57921   -80640.612    80668.426    63.055914    42.538904 
167772000    321.49429    276.90567    271.59236   -80672.541    80687.081    5.3133148      42.5358 
167776000    321.22416    951.52363    226.99827   -80701.889    80700.855    724.52536     42.54714 
167780000    292.16095    901.26311    541.95967   -80679.936    80707.643    359.30344    42.554727 
167784000    304.06544    380.36759     230.9359   -80691.667    80706.153    149.43169    42.556546 
167788000    326.06032    553.20934    284.32914   -80698.555    80723.302     268.8802    42.551946 
167792000     314.3161    737.68474    860.01176   -80695.092    80723.096   -122.32702    42.556101 
167796000     317.6522    492.32049    751.93666   -80710.937    80724.165   -259.61617     42.55442 
167800000    276.99427    674.54535    132.97885    -80696.58     80715.01     541.5665    42.550974 
167804000    274.24266    768.01585    170.57005   -80709.411    80729.103     597.4458    42.543505 
167808000    287.07324    695.47634    126.16085    -80702.89    80720.291    569.31549    42.534863 
167812000    247.48358    237.89677    583.56451   -80705.612    80727.438   -345.66775    42.529017 
167816000    282.41264     402.1678     312.3943   -80715.284    80739.462    89.773501    42.530161 
167820000    272.74272    303.84102    398.59398    -80729.57    80760.021   -94.752967    42.524899 
167824000     296.2961    801.49606      311.777   -80744.854    80766.972    489.71906    42.514034 
167828000    301.92768    683.39976        303.9   -80755.721    80773.189    379.49976    42.521238 
167832000    244.30339    270.58896    456.03721    -80752.52    80782.115   -185.44825    42.533075 
167836000     234.7298    270.32209    330.59277   -80764.675    80801.588   -60.270682    42.534864 
167840000    275.67831    1045.2773    654.33008   -80764.341    80805.677    390.94724    42.535308 
167844000    278.06553    364.44094    578.48823   -80782.045    80801.579   -214.04729    42.543629 
167848000    261.28699    175.80816    231.73037   -80788.883     80829.43   -55.922208    42.536569 
167852000    283.30068    497.00755    426.44212   -80820.278    80832.235    70.565428    42.528819 
167856000     291.2723    292.74526    203.25112   -80805.174     80832.49     89.49414    42.534803 
167860000    299.81829    439.33414    310.21618   -80825.002    80838.063    129.11796    42.526175 
167864000    275.98321      717.167    333.56202   -80824.852    80848.982    383.60499    42.524872 
167868000    331.21384    1007.7958    359.92836   -80862.317    80861.909    647.86749    42.524423 
167872000    297.44893    871.47287    226.44754   -80863.539    80867.438    645.02534    42.530319 
167876000    282.50491    610.66478    421.04406   -80868.714    80889.685    189.62072    42.523825 
167880000      326.785    611.19836    492.70443   -80879.158    80902.137    118.49393    42.526639 
167884000      318.745     445.4322    312.28279   -80881.654    80895.012    133.14941    42.518703 
167888000    268.17677    508.47622    856.71787   -80888.838    80918.105   -348.24165    42.516022 
167892000    284.11214    464.95529    650.38435   -80924.106    80937.751   -185.42906    42.507796 
167896000    316.13615    479.28706    293.26919   -80925.563    80940.993    186.01787    42.517136 
167900000    259.57394    552.68412    322.27079   -80916.221    80947.643    230.41332    42.521479 
167904000    326.19434    690.10754    450.66943   -80936.304    80953.571    239.43811    42.520431 
167908000    285.55556    382.41294    364.25332   -80939.621    80961.151    18.159621    42.517013 
167912000    289.17275    316.50221    161.87807   -80955.711    80982.458    154.62414    42.521702 
167916000    298.95343    786.58625    440.15728   -80975.945    80996.766    346.42897     42.52194 
167920000    271.70518    347.30356    193.92803   -81006.257    81021.947    153.37553    42.525867 
167924000     283.8417    434.99325    249.25109   -81017.854    81036.648    185.74215    42.524209 
167928000    316.28318    350.51841    1244.8297   -81039.566     81055.64    -894.3113    42.517318 
167932000    304.03786    275.33241    259.49979   -81053.742    81064.035    15.832624    42.522731 
167936000    284.26643    237.78773    309.70412   -81064.334    81073.073   -71.916384    42.523823 
167940000    267.64024    251.47833    307.59981   -81060.816    81089.118   -56.121476    42.513583 
167944000     323.4155    875.28563    32.282122    -81071.76    81090.467    843.00351    42.515141 
167948000     318.2449    184.67086    573.91557   -81075.902    81093.587   -389.24471    42.511615 
167952000     278.6079    380.14837    355.98393     -81090.5    81117.583    24.164438    42.519089 
167956000    319.33321    434.45628    405.89513   -81110.681    81128.865    28.561146    42.527479 
167960000    303.95916    596.38084    619.96052   -81107.138    81131.955   -23.579688    42.518078 
167964000    273.02057    320.04017    469.35216   -81107.855    81140.681   -149.31199    42.516774 
167968000    306.46594    329.82206    324.15933   -81131.952    81150.852    5.6627342    42.515228 
167972000    283.25058    528.85894    499.03509   -81140.444    81156.069    29.823859    42.516804 
167976000     280.1828    1237.5176    558.32712   -81160.213    81182.634    679.19046     42.51957 
167980000    302.24053    300.21057    407.15069   -81159.628    81188.878   -106.94012    42.522419 
167984000    291.66327    768.43634    377.73698   -81165.443    81182.411    390.69936    42.521327 
167988000    278.02291    235.17728    323.35823   -81167.926    81207.501   -88.180948    42.518382 
167992000    301.33314    649.68868    561.11691   -81185.487    81208.738    88.571777    42.519098 
167996000    289.07899    193.25952    329.17696   -81208.666    81230.613   -135.91745    42.524392 
168000000    246.57132    428.25131    297.35148   -81190.814    81229.668    130.89982    42.521509 
168004000    290.31698    581.41746    458.90724   -81208.708    81240.443    122.51022    42.528588 
168008000    271.28189    718.88622    499.95767   -81209.003    81233.119    218.92855    42.541574 
168012000    277.47547    307.68888    260.31647    -81220.67    81249.749    47.372416    42.537224 
168016000    275.96598    686.80119     195.2184   -81225.324    81250.732    491.58278    42.532712 
168020000    244.69603    283.40435    406.00811   -81217.593    81255.274   -122.60376    42.528587 
168024000    278.90635    519.83852    586.74908    -81232.78    81255.259   -66.910559    42.531717 
168025000    284.96925    189.58083    457.29416   -81229.423    81257.424   -267.71333    42.531717 
Loop time of 841.826 on 28 procs for 32000000 steps with 98 atoms

Performance: 4105.362 ns/day, 0.006 hours/ns, 38012.609 timesteps/s
100.0% CPU use with 28 MPI tasks x no OpenMP threads

MPI task timing breakdown:
Section |  min time  |  avg time  |  max time  |%varavg| %total
---------------------------------------------------------------
Pair    | 1.4477     | 15.71      | 65.778     | 445.8 |  1.87
Bond    | 1.9458     | 39.422     | 136.74     | 721.0 |  4.68
Neigh   | 5.03       | 5.2956     | 5.5402     |   5.2 |  0.63
Comm    | 227.45     | 280.42     | 458.68     | 305.5 | 33.31
Output  | 3.4327     | 4.328      | 4.3636     |   8.3 |  0.51
Modify  | 208.56     | 385.31     | 478.33     | 419.1 | 45.77
Other   |            | 111.3      |            |       | 13.23

Nlocal:    3.5 ave 14 max 0 min
Histogram: 20 0 1 0 0 0 0 1 0 6
Nghost:    39.5 ave 59 max 24 min
Histogram: 6 1 0 1 10 4 0 0 2 4
Neighs:    32.0714 ave 142 max 0 min
Histogram: 20 0 1 0 0 0 1 0 5 1

Total # of neighbors = 898
Ave neighs/atom = 9.16327
Ave special neighs/atom = 5.87755
Neighbor list builds = 303448
Dangerous builds = 0

write_restart FINALCONFIG

#and everyone lived happily ever after, THE END
Total wall time: 0:14:22
