LAMMPS (16 Mar 2018)
#lammps script for united atom polymer simulation (full-scale run)

# 1. INITIALIZATION
#allows pair, bond, bending and dihedral interactions
atom_style molecular

  # periodic (video game) boundaries in all cartesian directions
boundary p p s

  # uses real units (instead of units based on pair potential parameters).  List of units used in manual
units metal

###########
# 2. ATOM DEFINITION
##########

   ##
   # Read in data from starting configuration file
   ##

#read_data lammps-AT-config

 #use to restart
read_restart RESTART
  orthogonal box = (0 0 -29.1214) to (20 20 152.979)
  1 by 1 by 4 MPI processor grid
  1498 atoms
  197 bonds
  96 angles
  95 dihedrals
  2 = max # of 1-2 neighbors
  2 = max # of 1-3 neighbors
  4 = max # of 1-4 neighbors
  6 = max # of special neighbors

   ##
   # Specify the nature of the bond interactions
   ##

bond_style harmonic
bond_coeff 1 19.51 1.54
bond_coeff 2 22.45 1.82
bond_coeff 3 10000.0 2.0
special_bonds lj 0.0 0.0 0.0 angle no dihedral no

angle_style harmonic
angle_coeff 1 2.683 114.00
angle_coeff 2 2.683 114.40

dihedral_style opls
dihedral_coeff * 0.06071 -0.011743 0.1363628 0.0

mass  1   14.00
mass  2   32.06
mass  3  196.97
mass  4  196.97


pair_style hybrid lj/cut 14.0 morse 14.0 eam
pair_coeff 1 1 lj/cut 0.00395 3.95 14.0
pair_coeff 2 2 lj/cut 0.01594 3.62 14.0
pair_coeff 3 3 eam Au_u3.eam
Reading potential file Au_u3.eam with DATE: 2007-06-11
pair_coeff 4 4 eam Au_u3.eam
pair_coeff 1 2 lj/cut 0.0000 3.785 14.0
pair_coeff 1 3 lj/cut 0.00258 3.44 14.0
pair_coeff 1 4 lj/cut 0.00 3.44 14.0
pair_coeff 2 3 morse 0.879 1.47 2.7 14.0
pair_coeff 2 4 morse 0.000 1.47 2.7 14.0
pair_coeff 3 4 lj/cut 0.00 2.934 14.0


group freeze type 4
100 atoms in group freeze
fix startend freeze setforce 0.0 0.0 0.0



################
# 3.  Simulation Settings
###############

neighbor        2.0 bin
neigh_modify    every 1 delay 0 check yes



# Define some variables
variable Lx          equal xhi-xlo   # Ang
variable Ly          equal yhi-ylo   # Ang
variable Lz          equal zhi-zlo   # Ang

variable dz          equal ${Lz}/30  # Ang
variable dz          equal 182.100820164033/30  

variable zzlo        equal zlo  # Ang
variable zzhi        equal zhi  # Ang
variable vol         equal ${Lx}*${Ly}*${Lz}  # Ang^3
variable vol         equal 20*${Ly}*${Lz}  
variable vol         equal 20*20*${Lz}  
variable vol         equal 20*20*182.100820164033  
variable TEMP        equal 300.00 # K
variable TThi        equal 320.00 # K
variable TTlo        equal 280.00 # K
variable dt          equal 0.00025 # ps

timestep     ${dt}
timestep     0.00025

variable zlo1      equal -26.0
variable zlo2      equal -11.0
variable zhi1      equal 135.0
variable zhi2      equal 150.0

# heat layers

region          hot  block  INF INF INF INF ${zlo1} ${zlo2}
region          hot  block  INF INF INF INF -26 ${zlo2}
region          hot  block  INF INF INF INF -26 -11
region          cold block INF INF INF INF ${zhi1} ${zhi2}
region          cold block INF INF INF INF 135 ${zhi2}
region          cold block INF INF INF INF 135 150
compute         Thot all temp/region hot
compute         Tcold all temp/region cold


# Second Equilibration
fix             1 all nve
fix             hot all langevin ${TThi} ${TThi}  0.005 59804  tally yes
fix             hot all langevin 320 ${TThi}  0.005 59804  tally yes
fix             hot all langevin 320 320  0.005 59804  tally yes
fix             cold all langevin ${TTlo} ${TTlo} 0.005 287859 tally yes
fix             cold all langevin 280 ${TTlo} 0.005 287859 tally yes
fix             cold all langevin 280 280 0.005 287859 tally yes
fix_modify      hot temp Thot
fix_modify      cold temp Tcold

variable        tdiff equal c_Thot-c_Tcold
thermo_style    custom step c_Thot c_Tcold f_hot f_cold v_tdiff
thermo            4000
run             800000
WARNING: Using a manybody potential with bonds/angles/dihedrals and special_bond exclusions (../pair.cpp:218)
Unused restart file peratom fix info:
  fix style: STORE, fix ID: layers_COMPUTE_STORE
Neighbor list info ...
  update every 1 steps, delay 0 steps, check yes
  max neighbors/atom: 2000, page size: 100000
  master list distance cutoff = 16
  ghost atom cutoff = 16
  binsize = 8, bins = 3 3 23
  4 neighbor lists, perpetual/occasional/extra = 4 0 0
  (1) pair lj/cut, perpetual, skip from (4)
      attributes: half, newton on
      pair build: skip
      stencil: none
      bin: none
  (2) pair morse, perpetual, skip from (4)
      attributes: half, newton on
      pair build: skip
      stencil: none
      bin: none
  (3) pair eam, perpetual, skip from (4)
      attributes: half, newton on
      pair build: skip
      stencil: none
      bin: none
  (4) neighbor class addition, perpetual
      attributes: half, newton on
      pair build: half/bin/newton
      stencil: half/bin/3d/newton
      bin: standard
Per MPI rank memory allocation (min/avg/max) = 10.93 | 11.62 | 12.31 Mbytes
Step c_Thot c_Tcold f_hot f_cold v_tdiff 
67201000    301.54892    293.05199           -0           -0    8.4969332 
67204000    334.66772    265.24381   -1.1388535    1.2832658    69.423911 
67208000    333.62294    269.22601  -0.32834573   0.88108493    64.396936 
67212000    326.42107    282.32159  -0.53539849  -0.12542054     44.09948 
67216000    320.86401    285.69928  -0.51386083  -0.33191346    35.164731 
67220000    306.74402    290.23041   0.69628991   -1.0264054     16.51361 
67224000    326.68374    286.24778   -1.1419672   -0.4157202    40.435952 
67228000    327.46151    286.83949  -0.55548116  -0.57949003    40.622016 
67232000    332.34916    277.37354    -1.130102  -0.24629295    54.975618 
67236000    344.72025    270.05664   -1.1629698  -0.14390685    74.663608 
67240000    329.69401    269.21609    -1.236756   0.56985509    60.477923 
67244000    326.80194    284.94558   -0.9944843  -0.73905943    41.856363 
67248000    342.11837    284.36173  -0.59189983  -0.63406465    57.756633 
67252000    326.03349    279.81544   -1.7223007   0.14222245    46.218054 
67256000    304.85097    279.64585   0.40979485 -0.082548614    25.205113 
67260000    315.60514    286.52567  -0.14112951   -1.1576792    29.079468 
67264000     325.5248    287.00847  -0.66691524  -0.59039936    38.516328 
67268000    322.15659    283.70565   0.17338925    -1.424456    38.450934 
67272000    313.46871    285.10449  -0.27088104    -1.593042    28.364223 
67276000     319.7846    276.79843   0.29893094  -0.49798065    42.986169 
67280000    297.61173    285.82224  0.015893869   -2.3033408    11.789483 
67284000    345.24835    267.29103   -1.0008656   0.19336898     77.95732 
67288000    353.05177      275.279   -3.1463886  -0.95771858    77.772772 
67292000    321.95006    298.48627   0.12365946   -2.5384395    23.463794 
67296000    322.84011    297.01008  -0.59642539   -1.9222149    25.830037 
67300000    297.19915    293.12104    1.2165653  -0.64710967    4.0781155 
67304000    344.58785    285.15777   -1.8302108   -1.4150536    59.430084 
67308000    340.25178    290.47719   -0.7372705   -1.3074557    49.774587 
67312000    307.68711     254.7733   0.17957306   0.15120982     52.91381 
67316000    315.57739    279.19914  0.019917487   -1.6192965    36.378248 
67320000    321.92012    273.76519    0.3656594   -1.0062202    48.154929 
67324000    331.33408    281.60704  -0.25480659  -0.82336177    49.727035 
67328000    312.11096    293.85976  -0.36091687   -1.3102531    18.251205 
67332000    338.09828    269.70553  -0.60232248  -0.17616563    68.392747 
67336000    317.95714    286.44985    -0.489965   -1.0998286    31.507286 
67340000    321.97905    315.67687    -0.452971   -2.6335637     6.302183 
67344000    324.00943    293.73749   -1.2218439  -0.83148657    30.271939 
67348000    336.31775    270.30319   -1.9082741   0.15226556    66.014564 
67352000     337.0137    294.73491   -1.3142571   -1.4773449    42.278792 
67356000     324.7075    279.49099   -1.6302911  -0.19388523    45.216503 
67360000    317.94693    280.86151  -0.33454357    -1.250356    37.085424 
67364000    330.61227    282.76462  -0.80113843   -1.1861591    47.847649 
67368000    312.36158     298.5808 -0.0068678547   -2.1168871    13.780776 
67372000    325.06521    275.88595   -1.4906138    -2.004653     49.17926 
67376000    312.07151    288.74222 -0.047147967   -1.5166647    23.329294 
67380000    334.17829    279.61695  -0.65829379  0.075239941    54.561345 
67384000    306.31629     260.5632   0.87265902  -0.30893676    45.753089 
67388000    324.07952    272.98684   0.36759441  -0.66651647    51.092682 
67392000    335.09577    263.45251   -1.0611983   -1.3511993     71.64326 
67396000    309.25585    296.59081   0.11176368   -2.9505551    12.665048 
67400000    327.15738    294.66566   -1.0615435   -1.7902321    32.491728 
67404000    302.41096    289.96619    0.3429746  -0.90151243    12.444773 
67408000    330.03362    309.21666   -2.5838484   -2.2048386    20.816962 
67412000    308.70952    282.58295  0.054699604   -1.6186775    26.126572 
67416000    327.00866     288.1612   -1.2184996   -1.6687249    38.847461 
67420000     303.0592    257.78446   -1.3696424   0.38100325    45.274743 
67424000     316.0827    286.69895   -1.7121974  -0.45756811    29.383749 
67428000    338.50124    280.44752   -2.6424748   0.56524878    58.053725 
67432000    351.86941    257.85704   -2.9932725   0.76994691    94.012377 
67436000    301.42993    283.61301  -0.35049182  -0.17046631     17.81692 
67440000    316.82749    319.80611  0.024263005   -2.1808919   -2.9786259 
67444000    320.98934    266.16999  -0.81374087    1.2043534    54.819349 
67448000    313.55054    277.96976   0.42421125   0.41385813    35.580786 
67452000    332.08996     296.3152   -1.6522817  -0.56358826    35.774767 
67456000      311.206    264.79148  -0.54354608   0.97872744    46.414518 
67460000    300.87609    288.29145  -0.63424797  -0.47841725    12.584635 
67464000    334.19147     268.9463   -1.2021385  -0.70990368    65.245174 
67468000    328.84377     297.4059   -1.5369158  -0.44890605    31.437873 
67472000     334.5177    279.93788   -1.2461611   0.19846293    54.579819 
67476000    307.60788    292.50913   -0.7227027   -1.4041325    15.098753 
67480000    310.56261    257.26289 -0.013613271   0.73280254    53.299727 
67484000    316.29902    275.98189  -0.93270127  0.070283212    40.317137 
67488000    341.90453    294.20378   -2.4303431   -0.3963405    47.700756 
67492000     325.6423    311.47987   -1.6505396   -1.2911178    14.162426 
67496000    320.55507     260.0909   -2.2359365    1.2038555    60.464173 
67500000    341.67316    292.93529   -2.8884214  -0.57252269    48.737874 
67504000    298.97542    286.79297   -0.1111679 -0.043629061    12.182451 
67508000    320.27308    266.40467   -1.0244741    1.5546838    53.868406 
67512000    333.00072    269.72163   -1.1338486    0.4978659     63.27909 
67516000    321.67421    286.40514  -0.79436936    0.5625748    35.269065 
67520000    313.53213    267.63387   0.28846728   0.92934993    45.898262 
67524000     311.2745    265.51492 -0.094999136   0.29350794    45.759575 
67528000    344.65669    276.28547   -0.6707632    1.5646162    68.371226 
67532000    331.27742    277.20837  -0.65583773  0.030537053    54.069053 
67536000    328.31143     274.3462   0.70167626   0.31819211    53.965227 
67540000     310.3616    275.94145   0.51611956   0.34190699    34.420158 
67544000    316.02169    274.52272  -0.39963547   0.68005049    41.498967 
67548000    318.26705    277.51603  -0.20379793    1.7783423    40.751019 
67552000    329.83575    276.82089  -0.85968439    1.5664172    53.014861 
67556000    314.09824    286.00334   0.89831184   0.50789556    28.094893 
67560000    315.02112    286.50487   0.25978634    1.0130708    28.516252 
67564000    320.35418    278.83854   0.15558603    1.0306603    41.515641 
67568000    289.11735    281.02918    1.7782651    1.4431051    8.0881708 
67572000    313.60827    260.26906 -0.0088374801    1.9470685    53.339208 
67576000    305.87983      294.751   0.10918743  0.071457898    11.128832 
67580000    318.69101    281.07145    0.1039389   0.19827613    37.619557 
67584000    330.81587    287.28131  0.079090618  -0.25320276    43.534554 
67588000    312.72655    311.25845  -0.16042992  -0.41094682    1.4680984 
67592000    300.18941    272.30308   0.67956325    1.6214829    27.886333 
67596000    338.53869    285.18305  -0.39213883    1.3223819    53.355635 
67600000    325.28232    283.85979   0.13045223    1.4955378    41.422524 
67604000    298.32719    286.05523  -0.78361402    2.0056915    12.271965 
67608000    331.02551    272.46012   -1.4263057    2.0222063    58.565382 
67612000    329.09944    283.57205   -0.4263763  -0.17745639    45.527395 
67616000    319.90164    265.91527    0.2905754    1.8631408    53.986374 
67620000    316.42584    281.95102   -0.8244653   0.52367737    34.474829 
67624000      305.598    277.55258   0.18359547    1.0108609     28.04543 
67628000     315.0643    289.25283   0.96313851   0.94440281    25.811472 
67632000    285.66748    283.36668   0.97295751    1.4270274    2.3007999 
67636000    316.30436    293.56744   0.87109742    1.3354301    22.736923 
67640000    308.90101    260.16627   0.61424959    1.1015265     48.73474 
67644000    308.57152    276.54685   -1.3802115   0.22772232    32.024678 
67648000     316.9248    288.81127 -0.084776684   0.90893218    28.113533 
67652000    336.46886    273.13019  -0.38512847   0.73636735    63.338666 
67656000    313.38639    283.36789  -0.68785208   0.97290519    30.018504 
67660000    331.20444    294.17057  -0.10485438   0.19453912    37.033867 
67664000    320.53363    268.23557   0.34298491   0.80318074    52.298065 
67668000    287.63966    283.88283    1.4847618     1.100742    3.7568289 
67672000    329.18715    296.65175   -1.0846421  -0.28612115    32.535402 
67676000    297.76105    272.56141   0.01452013    2.1600922    25.199637 
67680000    309.92775    287.86044   -0.3017267    1.4192196    22.067306 
67684000     339.2679    277.52903  -0.73629163    1.8774548    61.738875 
67688000     311.8455    287.56208   0.54345931   0.29296161    24.283429 
67692000     319.4372    284.91293   0.51469768    1.4926318    34.524265 
67696000    315.16498     299.7213   0.62647621    1.3252443    15.443679 
67700000    341.94968     282.9694   0.53964464    1.6724074    58.980274 
67704000     325.4413    267.09507   0.87453834   0.95193292    58.346228 
67708000    322.58094    273.25502   -0.1862658    1.6667028    49.325919 
67712000    306.44775     276.3032    0.4546978    1.7567506    30.144548 
67716000     305.6381    287.73725   0.25928779   0.76598858    17.900856 
67720000    329.64604    268.22612   0.08779338    1.4840144    61.419911 
67724000    334.46652    291.33674   0.26759462    1.0409972    43.129787 
67728000    314.58959    283.68897 -0.057379061   0.96021106    30.900622 
67732000    328.14786    275.17579   0.46409711     2.121675    52.972064 
67736000    306.16456    275.51292   0.69876775    1.2203496     30.65164 
67740000    324.55012    284.28121  0.078912227    1.2920391    40.268909 
67744000    345.26142    249.88189 -0.020979892    3.0754064    95.379521 
67748000    332.23499    277.01426   -1.7998048    2.3943629    55.220729 
67752000    334.93447    287.98968   -1.7138024   0.88625709    46.944793 
67756000    326.07635    284.18501   -1.2975007   0.10313233    41.891346 
67760000     317.0643    291.72239  -0.91182718   0.56177973    25.341906 
67764000    322.34881    294.00411  -0.97808039   0.72011921    28.344703 
67768000    306.36478    259.07206  -0.46848954    1.6335202    47.292712 
67772000    318.51635    276.84432   -2.6619993    1.1558234     41.67203 
67776000    343.79681    266.19952   -2.4953885    1.9467075    77.597285 
67780000    306.95055    293.14093   -1.9191174  -0.38389772    13.809626 
67784000     314.8244    293.30037   -2.0937773    1.0331403    21.524025 
67788000    329.29792    273.52246   -3.7605332   0.15818299    55.775458 
67792000     293.1585    307.63883   -1.3165574  -0.56452932   -14.480333 
67796000     330.9825    286.78946   -4.1197493    1.2258062    44.193044 
67800000    316.18153     282.7895   -3.2107813    1.5169966    33.392023 
67804000    319.01585    261.82777   -1.7431406    1.6783195    57.188079 
67808000    336.79654    276.91978   -2.6566461    1.2665604    59.876755 
67812000    306.08825    271.08186   -2.1265136    2.2210594    35.006394 
67816000    328.21813    282.57866   -4.2250523   0.72023352    45.639465 
67820000    318.06643    283.45585   -1.7130275    2.1538008    34.610582 
67824000    331.91158    288.73694   -1.5653467    1.5647731    43.174637 
67828000    300.42163    288.69359   -1.8099121    1.2902344     11.72804 
67832000    304.42273    260.97566   -2.2415847    2.2960532    43.447067 
67836000     342.7846    278.59862   -4.1077349    1.5518235    64.185971 
67840000    339.66833    288.35149   -3.9222991     1.995132    51.316846 
67844000    290.16191     254.3642  -0.58640752    3.1972942    35.797713 
67848000    356.08961    273.88694   -3.7810942     2.136282     82.20267 
67852000    324.11562    299.11498    -1.967954   0.33082961    25.000632 
67856000    323.40404    269.93843   -2.1322244    3.0302071     53.46561 
67860000    323.95541    256.71279   -2.4678633    2.9436641    67.242623 
67864000    322.89058     279.8824   -1.6920714    2.9559262    43.008177 
67868000    324.64941     269.5566   -1.6961044    4.0411191    55.092812 
67872000    344.84805    284.93478   -3.8227831     2.984914    59.913269 
67876000     332.6077    273.48092   -2.0026282    3.2029651    59.126772 
67880000    321.26092    297.67645   -1.3728824    1.4731303    23.584464 
67884000    305.15043    281.42897  -0.44551474    2.5745288     23.72146 
67888000     329.5887    301.33726   -1.8662434    2.1807341    28.251447 
67892000    342.56199    305.52658   -2.0332902    1.1488412    37.035411 
67896000    311.76442    278.69753  -0.50370673    2.0617293     33.06689 
67900000      324.247    286.63275   -1.0577992    2.7758218    37.614249 
67904000     321.4954     268.0575   0.49860721    3.0639256     53.43789 
67908000    305.59073    296.21491   -1.1344217    -0.250601    9.3758129 
67912000    321.97824     261.3782  -0.77692263    2.2390299     60.60004 
67916000    318.00654    287.43294   -2.0008758   0.89863659    30.573594 
67920000    328.83244    262.20989   -2.8313709    1.8554468     66.62255 
67924000      329.994    295.80338   -2.3233855  -0.17005798    34.190619 
67928000    324.54124    268.12953   -2.5146716    1.9794121    56.411706 
67932000    332.76184    295.26327   -2.3242963    2.1134263    37.498569 
67936000    296.84193    305.77778  -0.61057719   0.49027787   -8.9358522 
67940000    313.04633    256.45813   -2.2619637    3.3209747    56.588198 
67944000    311.11482     294.2796   -2.4434704    1.7756719    16.835229 
67948000    309.61532    283.96323   -3.1191033    1.8891782    25.652089 
67952000    323.33149    275.36863   -2.7720116     1.958547    47.962856 
67956000    312.10724    280.57097   -1.4640102    1.4654822    31.536267 
67960000    335.42147    279.78848   -1.9796077    2.0402239     55.63299 
67964000    309.33701    284.71509  -0.59994606     1.756316    24.621916 
67968000    322.94501    273.59672   -1.6819684    3.5421364    49.348296 
67972000    318.03581    289.68344   -1.0288717    2.6358381     28.35237 
67976000    317.44505    291.40662   -1.6829096     2.123016    26.038434 
67980000    312.20307    272.55418   -2.1234673    3.7606363    39.648896 
67984000    325.99333    283.38062   -2.0521695    2.7918075    42.612708 
67988000    327.67449    279.41893   -2.4667924    3.5830051    48.255564 
67992000    315.71027     297.4358   -1.6335198    2.9576371    18.274471 
67996000    336.63607    266.98027   -3.1371151     4.708479    69.655795 
68000000    319.16232    270.97526    -2.846292     5.160949    48.187051 
68001000    352.16666    296.23113   -3.9020272    3.8310905    55.935531 
Loop time of 1106.27 on 4 procs for 800000 steps with 1498 atoms

Performance: 15.620 ns/day, 1.536 hours/ns, 723.151 timesteps/s
99.5% CPU use with 4 MPI tasks x no OpenMP threads

MPI task timing breakdown:
Section |  min time  |  avg time  |  max time  |%varavg| %total
---------------------------------------------------------------
Pair    | 553.65     | 763.97     | 980.91     | 745.7 | 69.06
Bond    | 3.4698     | 5.3478     | 7.1553     |  77.6 |  0.48
Neigh   | 6.1108     | 6.1133     | 6.1149     |   0.1 |  0.55
Comm    | 14.07      | 216.34     | 424.37     |1371.8 | 19.56
Output  | 0.0044068  | 0.013949   | 0.021253   |   5.1 |  0.00
Modify  | 58.749     | 88.021     | 118.87     | 233.2 |  7.96
Other   |            | 26.46      |            |       |  2.39

Nlocal:    374.5 ave 714 max 35 min
Histogram: 2 0 0 0 0 0 0 0 0 2
Nghost:    2374 ave 4254 max 496 min
Histogram: 2 0 0 0 0 0 0 0 0 2
Neighs:    13078.5 ave 25846 max 314 min
Histogram: 2 0 0 0 0 0 0 0 0 2

Total # of neighbors = 52314
Ave neighs/atom = 34.9226
Ave special neighs/atom = 0.518024
Neighbor list builds = 1428
Dangerous builds = 0
unfix 1


# PRODUCTION

fix             1 all nve
fix             hot all langevin ${TThi} ${TThi}  0.005 59804  tally yes
fix             hot all langevin 320 ${TThi}  0.005 59804  tally yes
fix             hot all langevin 320 320  0.005 59804  tally yes
fix             cold all langevin ${TTlo} ${TTlo} 0.005 287859 tally yes
fix             cold all langevin 280 ${TTlo} 0.005 287859 tally yes
fix             cold all langevin 280 280 0.005 287859 tally yes
fix_modify      hot temp Thot
fix_modify      cold temp Tcold

variable        tdiff equal c_Thot-c_Tcold
thermo          4000

dump gigo all atom 4000 dump.cords_xyz.dat
dump_modify gigo scale no
dump vfgigo all custom 4000 dump.velo.dat id vx vy vz fx fy fz

# thermal conductivity calculation
# # reset langevin thermostats to zero energy accumulation
#
compute         ke all ke/atom
variable        temp atom c_ke/1.5/0.00008617333262

fix             ave all ave/time 100 40 4000 v_tdiff ave running
thermo_style    custom step temp c_Thot c_Tcold f_hot f_cold v_tdiff f_ave

#compute         layers all chunk/atom bin/1d z lower 0.05 units reduced
compute         layers all chunk/atom bin/1d z lower ${dz} units box
compute         layers all chunk/atom bin/1d z lower 6.0700273388011 units box
fix             2 all ave/chunk  100 40 4000 layers v_temp file profile.langevin

run             16000000
WARNING: Using a manybody potential with bonds/angles/dihedrals and special_bond exclusions (../pair.cpp:218)
Neighbor list info ...
  update every 1 steps, delay 0 steps, check yes
  max neighbors/atom: 2000, page size: 100000
  master list distance cutoff = 16
  ghost atom cutoff = 16
  binsize = 8, bins = 3 3 23
  4 neighbor lists, perpetual/occasional/extra = 4 0 0
  (1) pair lj/cut, perpetual, skip from (4)
      attributes: half, newton on
      pair build: skip
      stencil: none
      bin: none
  (2) pair morse, perpetual, skip from (4)
      attributes: half, newton on
      pair build: skip
      stencil: none
      bin: none
  (3) pair eam, perpetual, skip from (4)
      attributes: half, newton on
      pair build: skip
      stencil: none
      bin: none
  (4) neighbor class addition, perpetual
      attributes: half, newton on
      pair build: half/bin/newton
      stencil: half/bin/3d/newton
      bin: standard
Per MPI rank memory allocation (min/avg/max) = 12.03 | 12.29 | 12.44 Mbytes
Step Temp c_Thot c_Tcold f_hot f_cold v_tdiff f_ave 
68001000    283.51999    352.16666    296.23113           -0           -0    55.935531            0 
68004000    270.26021    335.84677    258.21161   0.57524017    2.2311351    77.635154            0 
68008000    277.25998    337.94555    266.05557   0.24643076   0.60570156    71.889986    34.616346 
68012000    274.92384    320.05536    284.45351     1.096206   -1.8165777    35.601851    36.359579 
68016000    270.96121    308.86896    270.80362    1.6120385   -1.4559735    38.065337    38.332926 
68020000    280.41861    313.66617    292.15437    1.0825526   -2.0125309    21.511791    38.829878 
68024000    273.11727    327.63445    262.62173   0.26661428   -2.2187454    65.012717    39.808159 
68028000    280.81623    327.00374    289.76897     1.177482   -2.4196096    37.234772    39.553569 
68032000    279.74595    334.36148     286.4142  -0.13159107   -2.0365712    47.947281    39.830627 
68036000    274.27519    343.62302    261.40682    1.0984351 -0.016806853    82.216194    40.187249 
68040000    275.84913    331.47786    264.35991    1.2089312   0.31772235    67.117942    39.725444 
68044000     271.4612    328.36049    275.85454   0.90424141  -0.30303303    52.505947    39.576537 
68048000    281.47059    333.29107    294.57392   0.23337325   -1.6609147    38.717147    39.655434 
68052000    276.54629    331.87334    275.54053  -0.55426511   -1.6405648    56.332815    39.409842 
68056000     268.2652    307.72178     259.2343   0.42853085   0.10258504    48.487485    39.196114 
68060000    276.00569    322.25831    273.96291   0.97915735    -0.656359    48.295399    39.228103 
68064000    274.93702    322.12211    304.10724   0.57134925   -2.2377705    18.014876    38.988045 
68068000    272.52479    312.60079    272.15275    1.5014497  -0.78067741    40.448043    39.131292 
68072000    278.89441    330.91283    281.08097  -0.23744152  -0.82495361    49.831856    39.206957 
68076000     274.2762    327.84124    260.41207    1.9366391  -0.55428163     67.42917    39.160947 
68080000    271.08007    287.05031    291.13266    4.0742573     -2.59567   -4.0823476    39.282635 
68084000    275.53349    304.83957    278.58745    2.5332286   -2.1502066    26.252119    39.154693 
68088000     273.9202     322.5436    279.87498    0.1895328   -2.3335897    42.668623    39.211883 
68092000    274.70342    301.59321    289.97325    2.5041228   -1.0656126    11.619963      38.9985 
68096000     272.1105    323.57427    273.23104    1.2530226   -1.3906798    50.343229    39.053399 
68100000    280.05529    302.82562    313.49482    2.7714822   -3.1153481   -10.669202    38.908648 
68104000    271.59816    331.15411    264.18603    1.2395947  -0.36694185    66.968078    38.934178 
68108000    271.03901    305.53469    292.83521    2.0266276   -1.0948202    12.699486    39.084909 
68112000    271.36839    310.94334      280.314    2.2672674   -0.9841116     30.62934    38.929734 
68116000    275.78374    330.89583    288.82022     1.301774   -1.7504249    42.075617    38.828975 
68120000    270.93559    308.01971    277.94934    2.2482097  -0.55326668    30.070365    38.833164 
68124000    259.51316    298.88023    270.87723    1.8451174  -0.54877591    28.003001    38.969797 
68128000    271.84069    302.16757    282.66682    3.1347433   -1.4739164    19.500748    38.987097 
68132000    276.91251    326.85023    287.21416   0.95440937  -0.99697572    39.636062    39.151583 
68136000    275.46158    319.80098    293.40012      1.66246   -1.8488363    26.400861    39.115054 
68140000    275.39865    312.47428    312.38246    2.7198848   -2.4991764  0.091820683    39.019103 
68144000    275.28273    324.60379    288.85478    1.4093697   -1.2143575    35.749014    39.170705 
68148000    272.66142    334.51184    262.12112    2.2603017   0.74727294    72.390716    39.076701 
68152000    265.00569    310.44681    260.36597    3.1757434   0.21427563    50.080838    39.076733 
68156000    280.49768    316.61041    294.07879   0.62682494   -0.2338039    22.531624    39.277222 
68160000    271.41338    312.51372    279.88496     3.458427  -0.45761637    32.628763    39.271722 
68164000    277.27311     315.0863    289.17394    2.3815377  -0.41502686    25.912363    39.363639 
68168000    270.29224    322.39442    269.94288   0.76107612  0.031620222    52.451538     39.45139 
68172000    273.23935    341.22534    275.57071   0.36482944 0.0017247764    65.654639    39.570553 
68176000    271.21132    308.51303    282.64363    2.7758005  -0.40457056    25.869404    39.556898 
68180000    262.39851    292.55019    272.18869    3.1355187  -0.27467752    20.361503    39.563482 
68184000    266.22636    316.44039    265.84204    2.3776256 -0.084637437    50.598347    39.557284 
68188000    280.66605    344.01301    298.95505    1.2327142  -0.62037128    45.057953    39.632368 
68192000    271.05438    309.31898    267.58499    1.3804257    1.4719754    41.733988    39.594989 
68196000    288.29951    342.95281     299.6425  -0.18696259    -1.563407    43.310318    39.567448 
68200000    273.78576     316.2213    283.21563    1.3028393 -0.055086147    33.005677    39.468535 
68204000    274.56394    311.78684    282.66014    1.8800041  -0.67654665    29.126704    39.440682 
68208000    275.14008    332.32476    278.97751    1.6428923   0.24344048    53.347251    39.431306 
68212000    267.57688    323.22551    284.28906    2.0110671 0.00011398183    38.936449    39.518822 
68216000    266.81146    324.91337    267.29598    2.9150005   0.92254815    57.617387    39.513717 
68220000    265.13217    305.34697    271.70775    3.2264701   0.03662546    33.639224     39.48017 
68224000    283.84058    342.89122    292.01056   0.47031585  0.031006592    50.880665    39.434218 
68228000    273.86309    322.45654    275.36865    2.3451071  -0.03671053    47.087888    39.516382 
68232000    267.73996    319.72022    268.56157    2.3717269    0.8305515     51.15865    39.495748 
68236000    260.79265    315.92609    259.14932    2.2690943    0.9277886    56.776769    39.498939 
68240000    273.07738    316.40427    285.27959    2.3641924  -0.78700677    31.124676     39.43768 
68244000    268.98319    314.87439    272.38383    2.5116823   0.30520343    42.490563    39.395043 
68248000    273.17065    311.55514    287.36677   0.85694261   -1.1120214    24.188376    39.410405 
68252000    268.08061    318.93629    264.57115   0.90499887  -0.50490019    54.365146    39.410222 
68256000    276.68181    314.85716    280.06209  -0.33538325   -1.5943193    34.795074    39.440426 
68260000    280.68034    316.91621    287.81348    1.0072091    -2.194669    29.102724    39.440846 
68264000    273.65346    336.88417     266.8232   0.29173541     -0.61432    70.060971    39.448076 
68268000    280.33225    317.94883     289.5089    1.0407144   -2.4843541    28.439931    39.487454 
68272000    283.79786    325.51625    303.44244   0.52284508    -2.244563    22.073808    39.476088 
68276000    276.48675    309.93701    286.55778    1.7419964   -3.0614332     23.37923    39.519267 
68280000    278.44066    318.25885    291.91085  -0.22076062   -1.8790553    26.347997    39.545578 
68284000    277.47813    326.83927    276.98337   0.41162869   -1.4242442    49.855894    39.584961 
68288000    264.51459    307.10079    263.38077   0.99357628  -0.63257086    43.720015    39.609468 
68292000    282.75295     326.9924    289.55381   0.41967061   -2.2512915    37.438588     39.57134 
68296000    268.22207    281.94632    272.24082    2.3505885   -1.0649958     9.705502    39.516668 
68300000    280.12984    333.01663     277.9315  -0.69010813   -1.2137357    55.085131    39.473742 
68304000    275.56136    314.77648    279.24872 -0.032110052  -0.64261301    35.527763    39.459345 
68308000    271.10727    318.02812    263.82552    1.2134287   0.18339227    54.202598    39.474478 
68312000    278.94986     319.5607    272.09616   0.71674645  -0.31934873    47.464543    39.475439 
68316000    276.40542    337.37307    283.65088  -0.63242185 -0.089355838    53.722185    39.458147 
68320000    274.95375    324.48679     273.9955  -0.31065839   0.37984361     50.49129    39.453652 
68324000      277.193    337.00219    262.01663   -1.8918768  -0.16172205    74.985558    39.467551 
68328000    281.85631    319.43605    284.15492  -0.56418295   -2.0346858     35.28113    39.496416 
68332000    284.93106     337.8332    284.56601   -3.1307079   -1.1900805    53.267188    39.493195 
68336000    277.16799    315.03094    281.66351 -0.086529789   -1.5888184    33.367421    39.530333 
68340000     284.5698    311.71226    290.66361  -0.84083736   -2.1241212     21.04865    39.536639 
68344000    277.72543    322.15877    278.14906   -1.8151175   -1.3054092    44.009716    39.544643 
68348000    281.72551    309.40893    269.95674  -0.91702102    -0.590608    39.452184    39.553777 
68352000    285.15307    327.88472    277.65666   -1.9275896   -1.5518879    50.228063    39.555546 
68356000    284.56797    331.95357    282.93872   -1.8174542   -0.9310586    49.014849    39.581886 
68360000    273.88361    318.05452    283.09109   -1.3424771  -0.84050237    34.963434     39.63726 
68364000    280.80424     328.1215    278.62717   -1.1631445  -0.30790084    49.494336    39.689293 
68368000    280.10778     310.6035    280.08985   -1.2388133 -0.032432636    30.513651    39.670606 
68372000    272.58907    299.08164    287.02416   0.34414263    0.1680714    12.057487    39.652359 
68376000    281.95878    312.09642    300.67956   -1.2168964   -1.6616755    11.416865    39.663838 
68380000      279.457    320.81547    267.01881   -1.1501373 -0.041396902     53.79666     39.71728 
68384000    287.09965     318.7113    297.52065   -0.9757907   -1.3655009    21.190649     39.72491 
68388000    292.96479    343.89854    295.90118   -2.9193129  -0.76851551     47.99736    39.725378 
68392000     281.6601    292.25963    278.60818  -0.79067695  -0.93659934    13.651452    39.707786 
68396000    276.13898    307.55122    273.15808   -2.1016557  -0.44521995    34.393141    39.691324 
68400000    277.03267    300.98006    277.54477   -1.9680315  -0.77367296    23.435297    39.692922 
68404000    285.06738    318.05908    291.35625   -2.2344997   -2.5352105    26.702829     39.71865 
68408000    278.75386    319.39478    267.31053   -3.1973578  -0.67162524    52.084256     39.76681 
68412000    283.15112    324.93124    287.15953   -3.1770055   -2.1139812    37.771716    39.759683 
68416000    282.97438    319.03763    289.28737   -1.3155231  -0.76972257    29.750256    39.742197 
68420000    289.40443     331.0394     287.3069   -3.0153058     -1.66281    43.732498    39.737501 
68424000    284.33123    324.00041    282.83992   -1.3928915   -1.6136004    41.160491    39.733979 
68428000    286.93463     324.1164    301.70308   -1.5617672   -2.5543896    22.413322    39.769656 
68432000    279.97324    318.61602    279.43807   -1.1600984   -1.3041182    39.177949    39.742128 
68436000    279.91816    310.09571    288.61864  -0.81639655  -0.51772933    21.477069    39.722719 
68440000    283.06272    330.41926    294.51295   -1.8108751    -2.411653    35.906315    39.774252 
68444000    274.09726    306.39212    285.52388  -0.68282441   -2.0072265     20.86824    39.781989 
68448000    280.24108    350.84376    273.39948   -2.4906415  -0.15010923    77.444274    39.802348 
68452000    273.12417    306.49696    268.24085   0.55527882  -0.24900835    38.256114    39.769536 
68456000    292.84256    343.72764    286.73558     -1.52276  -0.49815999    56.992062    39.795394 
68460000    278.38198    334.53207    276.60117  -0.72563664  -0.11581533    57.930903    39.812615 
68464000    279.79807    321.41958    278.30101  -0.79709281    0.4931515    43.118571    39.798031 
68468000    276.87032    307.39218    283.42783  -0.31339561    0.6059487    23.964356    39.789269 
68472000    274.67069    310.21023    285.65033   -2.4628605  -0.53041673    24.559908    39.773941 
68476000    276.99926    308.74996    279.64718   -1.2141882  -0.73594973    29.102783     39.77537 
68480000    282.60368    337.17856    269.27229   -2.4433156  -0.12983837    67.906264    39.740817 
68484000     284.0467     340.4395    269.58796   -3.1502067  -0.22733531    70.851537     39.76224 
68488000    286.94921    340.07392    290.54691   -2.5164328   -1.0770074    49.527006    39.750046 
68492000    272.46197     302.7572    261.93833  -0.38960359    1.1101098    40.818872    39.761335 
68496000    294.55403    335.25324    328.71343   -1.9529909    -1.796507    6.5398009    39.735518 
68500000    288.85994    354.36224    273.58707   -2.0686946   0.12088018    80.775165    39.748308 
68504000    277.84832    323.10994    275.19542  -0.36531817   -1.2930946    47.914519    39.732941 
68508000     277.7493    330.06217    280.99049  -0.34489393  -0.76793724    49.071679    39.726687 
68512000    272.26773    305.28404    271.39641  -0.66118606  -0.94908881    33.887623    39.715866 
68516000    275.50569    332.13086    256.65759   -1.2798359  -0.38653617    75.473278    39.757367 
68520000    280.70556    323.76033    271.77458   -1.5400682  -0.28284406    51.985754    39.782889 
68524000    288.75616    343.03961    301.42283   -2.4424103   -2.2933886     41.61678    39.761848 
68528000    268.81338    307.38253    268.38126  -0.30809429  -0.66529523    39.001261    39.755016 
68532000    272.67057     310.6294    269.87602   0.89042218  -0.76078673    40.753379    39.759767 
68536000    283.05647    321.04537    298.32913  -0.93012012   -2.5388723    22.716237    39.755242 
68540000    284.91464    321.15641    299.61514   -1.4024737   -2.3530959    21.541274    39.748244 
68544000    272.20125    311.40941    274.90799   -1.2875964   0.73671717    36.501425    39.750927 
68548000    278.59364    326.70138    289.23523   -1.1324352 -0.047386404    37.466149    39.743825 
68552000    283.14989    330.90613    297.17385    -1.608513  -0.81952969    33.732277    39.782589 
68556000    277.94746    326.53892    286.85828   -1.0382251   0.61844918    39.680633    39.788063 
68560000    283.18872    338.13462    295.74939   -1.7351428   0.77699779     42.38523    39.778247 
68564000     278.8874    324.51026    288.33996  -0.62721497   0.21884677    36.170299    39.732851 
68568000    271.14499    300.80993    276.28085   0.46006064   0.97615255    24.529078    39.757242 
68572000    287.53352    354.24573     271.9194   -2.4628467   0.59026984    82.326335    39.785057 
68576000    272.32411    343.27682    243.74336   -2.9422989     2.674594    99.533459    39.788941 
68580000    287.56566    327.34292    288.36466   -1.1230447   -1.0513666    38.978266    39.807467 
68584000    271.80635     308.7326    268.15339  -0.28717101    1.1880494    40.579209    39.811812 
68588000    276.11339    303.98967    274.15443   -1.5237942       1.9699    29.835241     39.80559 
68592000    277.62575    310.45981    288.63401   -1.1615633     0.621063    21.825801    39.790737 
68596000    276.10977    317.68945    278.95924   -1.4217522  -0.13702982     38.73021    39.784299 
68600000    288.07661    346.78531    278.62923    -2.598046  -0.59298103    68.156075    39.790209 
68604000    281.09125    305.99503    297.22381  -0.76388159   0.54910056    8.7712158    39.776125 
68608000    284.23489    330.97874    299.19346    -1.626596   0.05972338    31.785277    39.762655 
68612000    267.12849     311.0827     267.6381  -0.67564902    2.0675686    43.444597    39.811353 
68616000    282.99578    321.67214    301.11876  -0.72053591  -0.59494865    20.553382    39.824963 
68620000    273.40126    316.06721    290.53821   -1.5820722  -0.42766065    25.529006    39.816477 
68624000    275.61779    314.88743    272.85371  -0.97127508    1.3942632    42.033717    39.771959 
68628000    274.60586    298.78607    289.57914  -0.66614393 -0.012053871    9.2069316    39.794574 
68632000    272.60545    292.89671     272.7027  -0.37112563  -0.57063137    20.194015    39.801836 
68636000    277.09061    321.39076    278.00371   -1.6417175   0.30292131    43.387047    39.789922 
68640000    292.90565    350.69851    281.07209   -1.7584152    1.1121621    69.626416    39.785757 
68644000     276.8568    324.06001    269.43604   -1.7409558    1.9827363    54.623968     39.79652 
68648000    275.46227     318.9824    266.13661   -2.1003539    1.7312636    52.845786    39.813221 
68652000    282.98827    328.23375    291.97871   -2.4768556  -0.16539119    36.255038    39.850512 
68656000    269.79978    298.00385    282.08982  -0.20374254    1.5406903    15.914025    39.861407 
68660000    279.14256    329.60249    258.45724   -1.7801437    2.5278866    71.145255     39.84441 
68664000    275.66839    315.17936    276.56445   -1.6072029   0.98196642    38.614907    39.825617 
68668000    265.84175    307.23337    276.92322  -0.20338763     1.048112     30.31015    39.810724 
68672000    272.03357    335.59839    275.39609    -2.359023    1.5694868    60.202298    39.778188 
68676000    275.03635    326.36229    277.82338   -2.3427211    1.3049019    48.538912    39.806164 
68680000    275.10968    323.46325    295.40191   -1.3531667   0.61367048    28.061338    39.815902 
68684000    272.34951    299.74218    271.85366  -0.55478366    1.7846678    27.888518    39.824335 
68688000    282.52946    310.29178    310.97291  -0.90826577  -0.47221933  -0.68112289    39.820496 
68692000    274.20845    305.32204    289.32537  -0.68983382    0.2394357    15.996663    39.818399 
68696000    264.44252    312.67477    263.72125  -0.58736423    1.9440269    48.953518    39.814933 
68700000    278.87372    358.52932    275.80435   -1.8504537   0.76203929     82.72496    39.871953 
68704000    275.64346    318.37504    283.38791   0.51990839    1.1847324    34.987134    39.858275 
68708000    270.71983     309.4382    281.61755   0.40295253   0.22831968    27.820659    39.825809 
68712000    264.04279    315.60782    253.92176 -0.057584308    1.9217099    61.686057     39.84263 
68716000    268.81625    305.16388    286.68859  -0.28414345    0.1353684    18.475289     39.81954 
68720000    277.75233    328.99158    272.42484  -0.53063699    1.2511482    56.566741    39.838779 
68724000    276.93297     330.4308    292.69075  -0.72704031   0.42762509    37.740046    39.827181 
68728000    275.86032    327.87825    285.33546  -0.60012346    1.7393164    42.542791    39.829991 
68732000    265.43458     315.8268    261.06362  -0.26172934    2.8972153    54.763181    39.812701 
68736000    279.42415      322.921    280.48315  -0.67311878    1.7718867    42.437843    39.828389 
68740000    276.05552    308.26959    279.44247 -0.030203563    2.1983016    28.827128    39.826121 
68744000    267.60958     302.8014    278.52037   0.69801043    1.4494192    24.281029    39.876062 
68748000    278.60268    324.69855    289.00421   -2.7843276    1.1395554    35.694338    39.895528 
68752000    269.91944    313.04123    273.44745   0.21767719    1.5903018    39.593783    39.900144 
68756000    267.22215    309.37089    263.68785   -1.4200521    2.7462729    45.683044     39.91597 
68760000    270.06397    317.36761    271.51623   -1.3101698    2.5430494    45.851376    39.922665 
68764000    277.43015    333.62464    286.28678   -1.4907706    1.5198408    47.337863    39.896674 
68768000    268.41969    302.19344    275.87207 -0.020090036    1.9610194    26.321369    39.908323 
68772000    268.87342     318.7276    283.36754  -0.59746185    1.3833032    35.360064    39.941544 
68776000    278.34718    333.36497    282.69578   -0.6340812    1.2486571     50.66919    39.946881 
68780000    273.11808    319.06352    289.12219   -1.1131996    1.3515544    29.941334    39.967222 
68784000    275.09411    323.31365    300.27439  -0.64023045 -0.030501199     23.03925    39.979568 
68788000    271.00164    319.40637    268.96552  -0.29348734    2.4246794    50.440843     39.95748 
68792000    271.04551    305.45332    272.24745  -0.20312136    2.8018014    33.205875    39.957009 
68796000     281.0038    329.92856    279.81879   -1.3112535    1.7032371    50.109763    39.961358 
68800000    271.74034    317.03061    264.73727   -1.2665542    3.0065559    52.293341    39.978682 
68804000     265.5464    307.35201    278.87954   0.62890202    1.3594283    28.472466     39.98464 
68808000    272.35383    315.81455    282.62411    1.1364703    1.4633312    33.190436      39.9956 
68812000     268.4508    335.54206    265.15158  0.018160795   0.76044321    70.390483    40.004172 
68816000    276.37778    325.43745    290.47756 -0.063137635   0.13300316    34.959886    40.034152 
68820000    279.95823    338.57572     295.4886   0.70201945   0.14376335    43.087117    40.057058 
68824000    278.13753    329.51254    281.54207   0.50453259    1.0255848    47.970471    40.053572 
68828000    282.08689    328.54788    299.35783    1.3733972  0.057240269    29.190048    40.065198 
68832000    280.00827    347.45794    290.01406   -2.0604278 0.00053209842    57.443878    40.058123 
68836000    275.32988    320.93534     293.1882  0.095254249   0.66862485    27.747144    40.056192 
68840000    269.37193    321.09114     288.6126   0.97813201  0.074058261    32.478543    40.043838 
68844000    265.82749    317.25504    246.35524    1.1505168     1.537844    70.899801    40.061608 
68848000    280.87956    312.66123    290.40733  -0.44880811    0.6950677    22.253896     40.05729 
68852000    278.05084    334.82067    293.76512  -0.85124882  0.072241798    41.055546    40.071096 
68856000    279.31212    326.98062    289.40948  -0.80241624   0.33002944    37.571136    40.079696 
68860000    273.38282    322.28169    274.61905  -0.62932656  -0.92703711    47.662643    40.096439 
68864000    271.56194     314.1797    299.43881  -0.77716291  -0.56925633    14.740891    40.092423 
68868000    270.87408     314.7778     265.8879 -0.072954817   0.97396426    48.889906    40.095256 
68872000    270.88358    327.11745     278.7596   -1.1989926   0.18863997    48.357847    40.103359 
68876000    282.89355    338.64672    284.33528   -1.5067866   0.30181769    54.311436    40.102241 
68880000    267.30141     299.4171     281.8121   0.95422906    1.1382978    17.604998    40.095342 
68884000    272.84075    320.17971    270.95435  -0.77433014    2.5409718    49.225363    40.095775 
68888000    276.38445    318.18343    295.20636  -0.76091178   0.56121675     22.97707    40.095323 
68892000    275.21406    323.75094    282.32852 -0.098533965    1.9641224    41.422417    40.119677 
68896000    270.68555    319.57753    293.44918  -0.81953944   0.75353475    26.128351    40.120747 
68900000    264.87846    299.97515    274.76801       0.1911    1.0491608    25.207138    40.137467 
68904000    271.69637    310.95893    283.77794   0.14768883   0.13986315    27.180989    40.129007 
68908000    280.23554    329.69024    287.24162 -0.073895392   0.90580076    42.448619    40.138597 
68912000    278.71364    341.92143    280.38575  -0.26991767   0.98259758    61.535677    40.137803 
68916000    263.12933    312.77823    272.57366    1.8552623    1.6345083    40.204578    40.152412 
68920000    268.00637    334.59062    274.95929  -0.88858957   0.37232707    59.631335    40.144816 
68924000    268.82499    317.64887    263.12564   0.48063931    1.0186036    54.523229    40.143823 
68928000    277.07983    350.30752    280.65553   0.21820722     0.469862    69.651991    40.143674 
68932000     272.3919    303.95483    295.59577    1.6046408   0.30018005    8.3590632    40.141679 
68936000    260.53154    301.86495    249.04149    2.6625593    3.5855888    52.823453    40.155001 
68940000    283.54459    316.84483    322.70737   0.54706263 -0.035255161   -5.8625364    40.160116 
68944000    269.04686    302.52338    282.15626    1.0166086    1.0452233    20.367119     40.16686 
68948000    283.85386    345.81798    295.24428   -1.3558077       1.0041    50.573704     40.18886 
68952000    265.78935     316.3364     271.0696   0.37799082   0.63341609    45.266802     40.18417 
68956000     279.9497    350.72433    287.14049  -0.42740316   0.25204113    63.583849    40.186059 
68960000    279.33814    333.06265    290.11037  -0.27266063  -0.39668871    42.952278    40.193843 
68964000    268.06938    306.15736    278.83957    1.0622488    0.4586187    27.317792    40.176663 
68968000    265.65122    300.77342    272.21759    1.2760855    1.4224996    28.555833     40.18807 
68972000    273.82403    326.49213    271.60247   0.25109774    1.7193119    54.889661    40.175557 
68976000    267.96641    310.40383    267.18876  0.040677241    1.9103634    43.215073    40.154623 
68980000    269.78896    321.00173     260.5017   0.33970078    2.0957123    60.500034    40.141787 
68984000    258.89413    298.81734    262.32201    1.7099844    1.3926304    36.495329    40.127125 
68988000    272.16166    336.90815    265.04061   0.10581206   0.44852958    71.867542    40.147123 
68992000    274.88031    307.24451    282.93157    0.5398221    1.4526755    24.312941    40.143363 
68996000    271.24982    337.54809    272.16253  -0.57870393    1.8630023     65.38556    40.147457 
69000000    269.29013    324.80348    269.28724  -0.69353949    2.5315485    55.516232     40.15426 
69004000    265.36908    324.89765    267.31565   -0.7191507    2.2558399    57.581997    40.163405 
69008000     276.4777    349.97158    277.71014   -2.1118409   0.90156266    72.261436    40.159843 
69012000    265.21446    305.18751    285.93694    0.8527225   0.94584354    19.250567     40.16988 
69016000    275.24343    323.62506    298.41989    0.8968542   0.95742488    25.205166    40.156666 
69020000    270.64784    308.54213    295.55729    0.4080717   0.19318148    12.984844    40.171065 
69024000     268.4193      322.795    260.59384    1.0010066    2.5236185    62.201159    40.158218 
69028000    272.74387    325.11762    269.03471  0.065734284    1.8399911    56.082916    40.156191 
69032000     285.0558    356.48403    284.16894  -0.22850738    1.1064507    72.315084    40.142295 
69036000    280.60463     324.3265    298.53445    1.2690172   -0.4322399    25.792057    40.151107 
69040000    280.77201    321.57276    297.41026   0.85293679   0.40124868    24.162498    40.152047 
69044000    273.37363    321.75407    278.82003  -0.45707438   0.42985621     42.93404    40.139159 
69048000     276.4522    325.95889    298.44309   0.26174857  -0.87149509    27.515797    40.137747 
69052000    278.17232    322.88431    305.73558   0.56414139  -0.83981726    17.148739    40.122747 
69056000    274.18223     329.2447    256.81726 -0.0097763324    1.5308993    72.427436    40.113108 
69060000    282.75168     341.1805    297.46043   0.31566149  -0.54308636    43.720077    40.124522 
69064000    279.89223    327.24021    284.70241   0.47035901   0.33646211    42.537802    40.119835 
69068000     272.2404    327.46542    281.77673   -1.1595547   0.65544067    45.688691    40.115895 
69072000    271.77055    318.69173    267.82777  -0.64448297     2.355866    50.863966    40.118476 
69076000    274.54433    318.87903    266.17355  -0.53253066    2.2019835    52.705482    40.119086 
69080000     267.4995    325.22961    264.79177  0.027582413      0.42903    60.437849    40.130099 
69084000     282.7854    347.65351    284.64729   -1.1733773  -0.40060556     63.00622    40.142497 
69088000    276.35864    311.84465    286.90557   0.14178608  0.098356502     24.93908     40.14906 
69092000     274.5773     340.4606    264.64326   -1.6512466    1.4217162    75.817335     40.14976 
69096000    277.15327    329.81138     270.6596  -0.80919897    1.0060197    59.151781    40.166021 
69100000    281.39741    338.56266    287.85315  -0.69632538   0.38146674     50.70951    40.167332 
69104000    271.38445    333.52452    262.26348  -0.69138279    1.4251271    71.261039    40.174977 
69108000    280.14094    327.33686    289.83188   -0.8676639  -0.63585741    37.504989    40.166645 
69112000    276.64841     314.7755    281.94179  -0.56448781  -0.28181754    32.833706     40.16103 
69116000    274.78192    316.23355    279.51319   -1.6803164  0.033707195    36.720359    40.151589 
69120000    283.30002    345.08718     289.1015    -1.324462 -0.070769214    55.985674    40.146055 
69124000    280.39479    317.81294      285.136  -0.58543323  -0.54177077    32.676935    40.143768 
69128000    276.03041    322.63276    265.67044  -0.53231971   0.66295518    56.962316    40.135896 
69132000    281.53536    320.22405    305.25136   0.10606828  -0.92583768    14.972698    40.142573 
69136000    274.17713    299.85671    287.64455 -0.084271863 -0.038497368     12.21216    40.135458 
69140000    272.79459    309.54109    268.46918   0.52174959  -0.18035291    41.071914    40.134999 
69144000     272.7295    325.27751    266.69365  -0.11451212   0.26773534    58.583857    40.122459 
69148000    265.27175    299.83094    274.44741  -0.30931996  -0.10196705    25.383534    40.128599 
69152000     273.1022    336.76425    264.77135    0.2872195   0.68409154    71.992902    40.133354 
69156000     286.2955    333.75026    292.92192   -1.4990714  -0.42705577    40.828333    40.124418 
69160000    269.34076    322.03283    274.42539   0.70883549  0.093629681    47.607443    40.124789 
69164000    276.82157    326.10149    286.64868  -0.66366381  -0.14069866    39.452816     40.11887 
69168000    272.53506    336.67685    272.28632  -0.58405155   0.21304824    64.390536    40.119813 
69172000    271.57935    316.40599    264.53056   0.86103762   0.95347354     51.87543    40.114865 
69176000    280.71842     323.3495    298.10558   -1.6510777   0.30797211     25.24392    40.105088 
69180000    268.39976    303.29664    281.59423   0.81830589   0.91458213    21.702408    40.101166 
69184000    270.89817    306.75504    297.08727  -0.41713858 -0.044294943    9.6677628    40.100712 
69188000    267.96366    316.06944    279.51106  -0.21484086   0.67692468    36.558384    40.091302 
69192000    267.49453    288.42075    279.66452    1.5272925   0.25172772    8.7562388    40.082105 
69196000    266.36647    315.49699     266.5001    1.4381395    1.2206456    48.996896    40.078606 
69200000    275.02586    319.92377    259.28232   0.75716934    1.5431905    60.641448    40.078538 
69204000    283.54527    318.10937    292.70594   0.29033494   0.20673199    25.403428    40.094704 
69208000    279.39566    322.92635    293.91852  -0.98159992   0.20312062    29.007833    40.081854 
69212000    278.29434    319.92308    284.30823   -1.5529013  0.069152179    35.614852    40.084244 
69216000    265.96779    300.39905     277.2319  0.020778469   0.10667373    23.167154    40.085532 
69220000    268.03057    323.82746    268.96451   -0.6239945   0.75903996    54.862948    40.092322 
69224000     271.9921    303.82753    268.63279    1.5385921   0.94774519    35.194743    40.106513 
69228000    269.08747    333.23057    269.25008  -0.80203261   0.33431596    63.980484     40.11018 
69232000     283.9788    330.84964    287.38435  -0.41169831   0.53344538    43.465295    40.124194 
69236000    264.24812    298.22728    286.04978    1.6858095    1.3097933    12.177499    40.122845 
69240000    271.47103    346.81769    253.00382   -1.4633958    1.7731722    93.813876    40.118104 
69244000    264.68586    307.36715    277.86075   0.57416393    1.2549224    29.506409    40.126289 
69248000    266.69623    306.65439    276.38354   0.22784493    1.5463386    30.270843    40.134646 
69252000     272.4588    344.15422    275.12115  -0.84673617    2.2105762     69.03307    40.141952 
69256000    277.79104     336.7902    293.20084  -0.50663696   0.40754057    43.589364    40.140317 
69260000    268.91471    300.63562    296.09509   0.90203358   0.95474866    4.5405271    40.134236 
69264000    269.46151    326.68413    260.60962   -1.0992685    3.6331627    66.074506    40.137566 
69268000    272.00454     302.8059    295.51331   0.16673773   0.92942291    7.2925914    40.136401 
69272000    279.34017    312.33435    286.59117  -0.46636432    2.0880391    25.743182    40.117112 
69276000    269.50846    318.66164    276.35627  -0.31553585    1.9267763    42.305376    40.114357 
69280000    272.46558    318.07133    293.75797   -0.1798783     1.512316    24.313355     40.12005 
69284000    277.10649    331.34871    273.73548  -0.80978915   0.39667929    57.613224    40.133107 
69288000    277.35362     332.0751    288.22434  -0.84705186    0.5531997     43.85076    40.128426 
69292000    278.46529    324.14085     286.3628  -0.61351214   0.78444263    37.778053    40.144148 
69296000    275.89975    321.29269    280.29846   0.11555008    1.9255717     40.99423    40.149271 
69300000    270.46408    322.60603    268.34981   -0.5260428     1.998489    54.256221    40.140646 
69304000    272.07852    319.62702    282.56385  0.029520065    1.0483251    37.063163    40.134835 
69308000    282.34187    322.48133    297.23181 -0.096359745     1.210653    25.249517    40.124824 
69312000    269.12793    308.59578    287.78639   0.78882127    1.3993077    20.809388    40.119492 
69316000     270.9055    331.65523    273.54665  -0.34796018    2.1423802    58.108577    40.125202 
69320000    274.27724    304.47491    298.81842    1.2393489    2.7211303    5.6564972    40.118508 
69324000    271.12282    327.05444      262.312   0.43967609    2.7012366     64.74244    40.122661 
69328000    263.03231    319.40162    254.77567   0.53914041    3.2133226    64.625955    40.114321 
69332000    268.68658    318.81822     280.4852   0.54209408    2.8187207    38.333024    40.104265 
69336000    274.04817    302.96787    317.80532     1.833439   0.25349901   -14.837451    40.103044 
69340000    268.97356    339.04934    264.92589  -0.83955496    2.6410571    74.123448    40.102002 
69344000    261.86603    307.20362    266.41061  -0.24530474     3.428434     40.79301    40.103668 
69348000    269.21598    318.51889    293.86883   0.33509633    2.1273724    24.650061     40.09278 
69352000    266.37353    313.89387    279.93595   0.54160728    2.9796791    33.957927    40.083362 
69356000    264.24084    311.80062    292.79198   0.52248198    2.7450687    19.008642    40.091498 
69360000     259.0911    309.38778    270.50531   0.75023763    4.0604446    38.882474    40.107339 
69364000    266.47032    332.14424    264.61599   0.31583134    3.5679625    67.528246    40.109815 
69368000     270.0326      317.649    299.67434   0.77466236    1.4102718    17.974655     40.11413 
69372000    268.34795    321.08624    277.09099  0.069230584    2.6086877    43.995245      40.1127 
69376000    266.10582    314.95385    286.36116 -0.036718382    2.5221789    28.592698    40.109689 
69380000    264.74846    329.22388    273.54847  -0.79510723    1.3428407    55.675409    40.121017 
69384000    266.14299    314.90089    258.47402    1.7597903    3.9966612    56.426873    40.129135 
69388000    273.12028    339.67829    267.41895   -1.4374186    3.4624584    72.259342    40.124219 
69392000    266.87303    323.14532    275.20094  -0.16516131    3.6223854    47.944388    40.131851 
69396000    270.70287    332.45598    269.91582   -1.3506888     3.186467    62.540164    40.139741 
69400000    270.41803    315.68363    290.78311  -0.39209341    2.5224946    24.900519    40.148708 
69404000    280.00219     341.3861    299.18213  -0.91460605     2.549706    42.203969    40.146298 
69408000    270.29781    322.82682     285.5246   -1.1147732    3.0298752    37.302219    40.157273 
69412000    265.39114    331.12194    260.11509   -2.0205068    4.3426698    71.006854     40.15433 
69416000    269.54995    345.27224    277.86486   -2.2238042    2.9766923    67.407387    40.163717 
69420000    265.02412    294.19743    265.68485   0.30983634    3.2668696    28.512573    40.173827 
69424000    269.87002    313.00956    273.34703    1.0704401    2.8057345    39.662534    40.182037 
69428000    261.19238    315.46003    278.14516  -0.55418815    3.7949239    37.314869    40.179318 
69432000    266.93265     344.2883    261.17942   -1.5580571    4.1476069    83.108878    40.186751 
69436000    264.03336    313.16225     278.7712   0.37821422    3.6490716    34.391053    40.180323 
69440000    260.47456    310.83774    272.28675   0.72102816    2.8113955    38.550983    40.196386 
69444000    267.18175    318.31447    294.69313    1.8800834    2.7693308    23.621346    40.197271 
69448000    261.25805    316.69409    275.26648    1.3206758     3.424542    41.427609      40.1835 
69452000    263.48438    329.27013    267.75423   0.65817797    3.5507981     61.51589     40.19873 
69456000    265.94941    335.42341    274.01614  -0.30532922    3.4492753    61.407271    40.190331 
69460000    267.30933    318.00324    292.05415  -0.72969353     2.877466    25.949096    40.177674 
69464000    260.88263    314.69731    273.60462 -0.053806613    3.9756469    41.092691    40.172256 
69468000    266.19272    339.59202    270.47126  -0.87314042    4.3249777    69.120767    40.180899 
69472000    264.72995    320.70025    282.24164   -0.9586905    3.7306911    38.458613    40.186792 
69476000    267.24069    309.14222     293.8927  -0.58281748    2.6434645    15.249514    40.195684 
69480000    272.68014    318.35935    290.05062   0.17401715    2.7152456    28.308728    40.193299 
69484000    265.09529    323.61604     266.6104   -1.1788965    2.8749619    57.005637    40.191826 
69488000    278.36297    339.54312    287.85738   -1.9783121    2.8262293    51.685736    40.190903 
69492000    271.31368    311.56029    290.46684   -1.5090671    3.0316009    21.093452    40.190558 
69496000    272.78963    333.29834    285.10673   -2.1848549     2.682677    48.191615    40.192736 
69500000    268.94769    326.21018    273.69716   -1.3729685    4.1152906    52.513022    40.186989 
69504000    259.53846    297.40164    271.55282  -0.99871633    3.4872016    25.848817    40.196928 
69508000    268.47435    321.91126    278.87604     -1.63904    3.1831675    43.035212    40.187584 
69512000    269.33176    318.99278    279.45602   -1.0221526    3.7036154    39.536763    40.192223 
69516000    277.59965    309.15033    300.20077   -1.4843739    2.6521116    8.9495636    40.183506 
69520000    281.09171    350.29122    286.53683   -2.6385202    2.9706831    63.754395    40.197793 
69524000    268.64567    323.56303    275.77412  -0.33381549    3.2610646    47.788913    40.181522 
69528000    269.49977    318.47525    263.56963   -1.3717855     3.260336    54.905615    40.184097 
69532000    272.01924    335.15233    288.80391  -0.39894089    3.2994829    46.348421    40.189776 
69536000    263.96704    316.18919    248.49441  -0.65647577    4.0417746    67.694771    40.197005 
69540000    278.11217    331.21175    295.54479   -1.0002174    1.7622759    35.666964    40.204434 
69544000    266.17227    302.00895    289.84674  -0.71200472    4.0119652    12.162207    40.201953 
69548000    269.11356    319.27588    273.89852  -0.44453542    3.0544072     45.37736     40.20409 
69552000    271.56563    328.58906    288.00037  -0.68588146    3.1906617    40.588694    40.202318 
69556000    274.58541    349.61757    259.66124   -1.6523805    2.7560764    89.956332    40.200331 
69560000    260.96406    302.92917     289.6767    1.6499768    3.0304842    13.252475    40.188045 
69564000    269.73873    319.39785    277.96053   0.34089535    3.1871675    41.437324    40.190645 
69568000    268.23859     331.4455    276.58652  -0.46870898     3.236947    54.858986    40.194384 
69572000    264.88964    337.94141    265.69276   -1.3975859     3.680171     72.24865    40.198967 
69576000    272.91247    327.73144    298.89292  -0.52477731    2.4438088    28.838516    40.194074 
69580000    261.48878    321.47373    255.51624    -0.901504    5.6207056    65.957485    40.193082 
69584000    275.21717    334.52687     289.8635   -1.5081973    3.4933277    44.663364    40.187038 
69588000    268.40703    315.91241    299.34927   -1.1867791    3.0070814    16.563146    40.177074 
69592000    270.90769    328.88635    294.31364   -1.9336406     2.773147    34.572702    40.178101 
69596000    271.71609    333.16866     287.1709   -1.3839726    3.2587546    45.997755    40.182782 
69600000    272.67997    346.74123    274.77222   -1.9237962    3.5346666    71.969011    40.180994 
69604000    269.65112    324.81034    266.36346   -0.7902792    4.2517554     58.44688     40.18231 
69608000    255.08648    318.87694    274.54289  -0.45255047    3.4561215    44.334047    40.174984 
69612000     271.4182    329.29314    275.29015   -1.7092103    4.0360094    54.002988    40.172389 
69616000    275.74762     327.0407    289.40268    -1.568683    3.5990351    37.638027    40.176423 
69620000      272.429    313.56268    261.83456   -0.5632297     4.460291    51.728114    40.178336 
69624000    265.72057    300.00029    276.67204  -0.65463934    4.5571662    23.328246    40.163758 
69628000    265.77375    324.79155     292.9483   -1.6223902    3.8185693    31.843259     40.16932 
69632000    270.30471    315.80201    291.24002  -0.91606377    2.7084353    24.561986    40.167947 
69636000    268.07746     321.3876    264.44651  -0.68460197     3.750582    56.941095    40.156806 
69640000    262.65422    321.07308    274.85434   -2.1865627    3.8016874     46.21874     40.15206 
69644000    268.11678    315.60002    274.75042   -1.4168455    4.2311488    40.849598    40.162762 
69648000    278.56609    341.12794    286.92461   -3.3468404    4.5228919    54.203325    40.175243 
69652000    258.19552    300.21936     262.3607 -0.058764923     6.259625    37.858662    40.182648 
69656000    265.48067    326.05758    262.30894   -2.4562698    5.8877462    63.748642     40.17976 
69660000    278.34236    337.72972    296.26852   -2.6452077      3.48349    41.461192    40.185958 
69664000    272.08566    327.75292    274.34771   -2.8484447    3.9691119    53.405203    40.186281 
69668000    262.97839    325.01074    272.27391   -2.7824005     4.620509    52.736828    40.190552 
69672000    262.60166    290.51477    281.44688    0.2557142    3.9722172    9.0678943    40.187471 
69676000    270.67829    321.61276    282.93599   -1.5483082    4.3611423    38.676765    40.185168 
69680000    272.07611    306.40461     287.5909   -2.1856948    3.0591286    18.813712    40.180687 
69684000    267.50224    315.61787     272.8519    -1.676637    4.5245162    42.765966    40.179419 
69688000    276.30178    351.47067    273.63704   -3.0355917    4.1505732     77.83363    40.182926 
69692000    264.16277    302.73666    271.56671   -1.2675904    3.9239527     31.16995    40.175405 
69696000    268.71372    321.68054    287.06324   -1.7302192    4.4329498      34.6173      40.1749 
69700000    272.78473    308.47491    289.05413   -1.0367612    3.9996694    19.420777    40.176492 
69704000    271.42704    312.27328    287.67165   -1.3752952    3.9041025    24.601625    40.174533 
69708000    276.44503    323.78307    275.72695   -2.7747693    4.2224029    48.056118    40.182461 
69712000    269.75026     317.8347    285.36998   -2.8873515    3.9454078    32.464715    40.190983 
69716000    278.74397    351.40765    271.69425   -3.4436703     4.369048    79.713399    40.197601 
69720000    266.58527    306.72923    261.56928   -1.2275993    3.9013354    45.159948     40.20732 
69724000    273.16816    322.96454    293.54932   -1.1190397    2.9010307    29.415222     40.21887 
69728000    269.38457    317.39325    275.49484  -0.90461796    4.0648393    41.898401    40.226879 
69732000    265.95432    320.93787    281.57902   -1.6776201    4.8791726    39.358851    40.235392 
69736000    272.24985     329.4761    287.00871   -2.9641897    4.1209331     42.46739    40.234442 
69740000    265.59982    319.85997    271.97115   -1.7412635    4.4732156    47.888821    40.238413 
69744000    269.01105    331.60352    277.71327   -2.9283831    4.2055655    53.890257    40.234383 
69748000    259.98347    321.82126    263.48313   -1.7323211    4.2093159    58.338125    40.214863 
69752000    273.26221    308.35804    292.75919   -1.1894449    3.6811962    15.598845    40.203984 
69756000    261.39932    316.17962    271.26202   -2.0457155    4.6725776    44.917601    40.186019 
69760000    268.49112       314.98    266.79864   -1.2946289    4.7008083    48.181357    40.182543 
69764000    263.88624    313.09866    263.12947   -1.0411811    5.7051753    49.969191    40.185107 
69768000    256.76349    299.31101    258.20111    -1.025353    5.5038199    41.109898    40.178712 
69772000    264.01065    310.74461     280.4758   -1.6529493    5.0960192    30.268807    40.182953 
69776000    274.02976    325.52415     284.2209   -1.6514214    4.1076789    41.303242    40.184721 
69780000    268.90231    309.32599    277.19045   -1.8242946    4.2150835    32.135544    40.182622 
69784000    268.18158    310.21664    287.33402   -2.2814135     4.175428    22.882624    40.181366 
69788000    273.61708    325.95783    284.71923   -3.4177702    3.9350078    41.238605    40.190437 
69792000    279.49278    326.55308    286.49828   -2.5438869    4.2285534    40.054801    40.180604 
69796000    273.61983    331.06138    263.99106    -2.823984    4.3121511    67.070321    40.186086 
69800000    267.55786     323.5168    287.85259   -1.8749707    3.6472442     35.66421    40.188593 
69804000    275.65729    328.42268     271.5511   -3.6778148    4.6189224    56.871578     40.18922 
69808000    269.48839    308.67063    274.46028   -3.5140209    5.1909567    34.210346    40.184443 
69812000    273.52723    316.46611    285.93918   -3.0253784    4.3165315    30.526939    40.180962 
69816000    266.46092    296.99729    267.78893   -1.2614226    4.6490067    29.208368    40.173427 
69820000    269.94486    325.25556     263.1369   -3.9760333    4.8909434    62.118658    40.172799 
69824000    271.31579    325.16914    269.20128   -3.3277067    5.0732527    55.967867    40.164396 
69828000    275.11902    328.54857    273.20358    -2.847063    4.2013463    55.344997    40.171387 
69832000    276.53357    327.94537    276.32158   -2.9036372    4.0478133    51.623784    40.180829 
69836000    277.80053    300.48283    297.05224   -2.2009827    3.7808729    3.4305961    40.171879 
69840000    265.13829    313.40277    266.23733   -2.1338543    4.9141359    47.165442    40.171337 
69844000     275.9955    323.52913    293.30429    -3.086382    2.1264492    30.224846    40.173647 
69848000    274.96798    343.18129    283.34316   -3.2604331     3.483593    59.838132    40.175046 
69852000    266.78862     307.0746    287.57766   -2.9301497    2.9731538    19.496942      40.1749 
69856000    268.22461    308.10044    266.38571    -2.882228    4.0435242    41.714737    40.176922 
69860000    282.15049    323.19673    278.45638   -2.5765872    3.2419867    44.740347    40.160384 
69864000    268.10564    301.04108    283.04489   -2.1297639    3.1030488    17.996191    40.156465 
69868000    272.84111    333.73583    275.71652   -3.6298276    3.1739197    58.019305    40.165058 
69872000    280.71987    319.48932    295.40203   -2.0063904    3.4106451    24.087287    40.166032 
69876000    277.55872    331.66992    282.74092   -3.2757393    4.4652789       48.929    40.163764 
69880000    263.06629     320.9402    269.88515   -2.8166633    5.5464403    51.055052    40.166569 
69884000    262.35651    300.44943    275.36098   -1.9770911    6.6455295    25.088449    40.166258 
69888000    272.70305    331.60109    273.76153   -3.1439398    6.1696343    57.839562    40.173679 
69892000    266.12905     313.7658    285.22517   -1.8843081    5.5534552    28.540634    40.182095 
69896000    271.08334    332.03647    272.28531   -3.4597683    5.6999676    59.751159    40.186742 
69900000    266.66816    302.02882     296.6577   -1.0066493    4.2695284    5.3711197    40.182604 
69904000    272.68194     316.9261    292.52523   -2.4172004    3.7527781    24.400878    40.193797 
69908000    279.04096    316.98155     303.7079   -2.7377658    4.4365415    13.273655    40.192559 
69912000     272.4233    336.23896    285.73326   -2.9146133    4.5758979    50.505704    40.200401 
69916000    268.93595    306.14568    289.55577   -1.8292777    3.9027712    16.589906    40.201686 
69920000    273.77146    299.71802    308.27951   -2.3467929    3.4413122    -8.561488    40.200236 
69924000    260.16754    312.68325    245.79199   -3.2895094    5.9730991    66.891253    40.200944 
69928000    270.94133    323.51105    279.48417   -1.3300451    3.4857242    44.026881    40.194595 
69932000    262.65518    297.16663    278.08311  -0.23682187      3.89372    19.083519    40.186733 
69936000     264.1331    338.05704    260.06853   -2.9817736    5.4762421    77.988503    40.189913 
69940000    271.02799    317.71369    278.93329   -2.6605774    3.9952594    38.780404    40.186248 
69944000    263.87432    298.78685     274.5351   -2.1512298    5.0272922    24.251751    40.186709 
69948000    262.37802    272.49931    295.01901  -0.63648905    3.0765677   -22.519699    40.189541 
69952000    272.41255    321.68834     288.6281    -3.646531    3.4926527    33.060235    40.190486 
69956000    273.50693    315.57461    297.70588   -2.3128035    3.1994541    17.868733    40.193526 
69960000    267.50903    312.08491    276.34646  -0.99038259    3.3133669    35.738443    40.201225 
69964000    269.34803    339.13875    281.93326   -2.7989762     3.080908    57.205493     40.20257 
69968000    265.60304    307.92227    286.20099    -1.284988    3.9497019     21.72128     40.19883 
69972000    263.44176    318.08562    268.86361   -1.8687152    4.4672815     49.22201    40.195303 
69976000    265.75926    321.15166       273.76   -2.0681949    4.8838959    47.391657    40.196753 
69980000      268.595    297.18203    283.60302   -1.2384827     3.377848    13.579011    40.199464 
69984000    269.71373    325.25803    269.85631    -2.149659    5.8333224     55.40172     40.19995 
69988000    274.74856    347.15213    277.93485   -3.2197729    4.1861441    69.217281    40.198007 
69992000    268.73095    334.73027    272.72735   -2.5903979     4.765489    62.002922    40.200678 
69996000    271.78244    317.06706    282.27592   -2.5033953    5.1271924    34.791143    40.201999 
70000000    269.98368    324.07919    267.85415   -3.4396844    5.1866972     56.22504    40.199233 
70004000    267.26883    318.19967    272.33384     -1.72318    5.4862925    45.865839    40.188651 
70008000    268.67423    312.24115    290.80286   -2.0385394    4.7602874    21.438282    40.181584 
70012000    267.62353    331.78035    263.13406   -3.1899638    6.0173754    68.646298    40.189251 
70016000    267.95568    315.98027    267.35953   -2.2362291    6.8190081    48.620734    40.194282 
70020000    265.10551     327.3808    259.33485   -3.1645173    6.9079311    68.045959     40.18997 
70024000    262.98768    325.02181    249.12652   -2.8964301    6.6169119    75.895294    40.202092 
70028000     278.6448    339.92775    291.24538   -3.3540523    6.2542862    48.682366    40.205539 
70032000    280.08056    334.44491     282.6681   -3.5402074    5.9656403    51.776814    40.217423 
70036000      276.132    314.53391    300.67621   -2.9895329    5.2419547    13.857703    40.225734 
70040000    264.75789    314.13077    263.94336    -3.801143    6.3706617    50.187414    40.226247 
70044000    274.38648    307.02169    291.50719   -3.2035157    4.3951563    15.514502    40.230925 
70048000    270.80878    313.97149    287.41958   -2.9462729    5.4893413    26.551907    40.229692 
70052000    277.55761    314.53037    285.52243   -4.0656982    4.8234092    29.007945    40.233203 
70056000    269.09321     321.1266    274.49455   -3.1374738    5.2709037    46.632045    40.239775 
70060000    276.01733    309.95334     292.5815   -3.4110321    3.2611437    17.371835    40.233116 
70064000    271.58426    320.51628    290.67498    -3.998146    4.2613185    29.841291    40.226923 
70068000    278.10495    339.60036    282.80739    -4.433148    3.0603262    56.792971    40.222225 
70072000    277.64389    326.71721    292.59272   -2.9955771    3.5552415    34.124497     40.21941 
70076000    275.57217    310.20057    303.13238   -2.1294011    3.8877494    7.0681921    40.217597 
70080000    268.68067    306.86941    277.19519   -3.4103396    5.2909995     29.67422    40.222026 
70084000    273.59728    320.73779    284.25078   -3.7317928    4.7351092    36.487001    40.222979 
70088000    269.50207    319.83695    283.62344   -3.0564919    3.9783806    36.213504    40.225592 
70092000    273.36982    323.47116    282.46044   -3.4910373    3.5916908    41.010721    40.226026 
70096000    269.54643    323.27285    267.89467    -3.555978    4.8803333    55.378177    40.221347 
70100000    267.41247    321.10016    281.42359   -1.7290695    4.8930103    39.676572    40.225774 
70104000    264.92212    302.66972    277.62506   -1.7498222    5.1212971    25.044665     40.23398 
70108000    273.61083    337.32409    286.57869   -3.6190217    3.5417274    50.745407    40.233351 
70112000    280.10797    326.03663     289.9725   -3.6291737    4.3062617    36.064131    40.239027 
70116000    274.71533    336.28807    288.41231   -3.0414913    4.8026288    47.875761      40.2427 
70120000     267.1573    331.10723    260.84778   -3.0367996    6.1771529    70.259451    40.237997 
70124000    279.67291    339.71057    298.41398   -3.5855414    4.0205096     41.29659    40.245046 
70128000    267.51111    313.20733    285.11995   -1.2824417    4.4122239     28.08738    40.244303 
70132000    275.26993    321.33581     293.9212   -2.7091423    4.1504155    27.414608    40.251934 
70136000    260.28145    293.80936     270.4679  -0.54151965    5.0780105    23.341463    40.252914 
70140000    277.14111    327.70427    288.85263   -1.4489478    3.7397076    38.851638     40.24899 
70144000    268.09095    348.60084    261.03932   -3.4224905    6.1822682    87.561511    40.238884 
70148000    260.97145    303.05736    259.50034   -1.9541645     6.328746    43.557026    40.233865 
70152000    264.20425    307.01869    269.15624   -2.1576104    4.4951993    37.862452      40.2336 
70156000    265.99365    319.31449    259.55234   -2.2770239    5.8488976    59.762149    40.233199 
70160000    272.67263    325.83113    274.44866    -3.009562    4.0057353    51.382465    40.230679 
70164000    266.49033    312.22103    275.34054   -1.4296222    4.5631435    36.880486    40.224517 
70168000    269.57509    311.64924    280.73042   -2.6688583    5.6258999    30.918824    40.223765 
70172000    277.90021    324.96482    292.44056   -3.8152625    5.3017305     32.52426    40.231361 
70176000    268.96469    314.30407    284.81005   -3.0960762    4.4464322    29.494016     40.22465 
70180000    272.05038    331.04212    260.97437   -3.5450202    6.3791337    70.067756    40.232179 
70184000    268.00443    307.56733    282.09711   -1.9627725    4.6434915     25.47022    40.227226 
70188000    269.22022    332.22403    277.23493   -3.1830908    5.6200397    54.989105     40.22265 
70192000    272.54645    325.31812     279.0731    -2.630117    5.6206134    46.245015     40.22274 
70196000    275.21196     323.1852    287.43225   -3.2377958    4.9004412     35.75295     40.21666 
70200000    273.00264    318.33985    290.10946   -2.5038446    3.7863883    28.230396    40.222521 
70204000    276.24384    312.13791     308.1342   -2.6051606    3.3947288    4.0037155     40.22561 
70208000    275.07348    333.88625    266.51073   -3.9846963    5.7593042    67.375526    40.238663 
70212000     265.9636    298.19265    272.66272   -1.5160929    5.7277352    25.529927    40.233865 
70216000    279.22984    318.16646    292.86571   -2.0073694    3.9919659    25.300745     40.23369 
70220000     272.2617    339.20775    269.98378   -3.5636147    5.3471291    69.223968    40.231003 
[...]
83304000    277.47342     321.7556    293.58898   -32.324908     31.37405    28.166616    40.127277 
83308000    280.37009     326.5976    270.64845   -30.426676     30.95279    55.949152    40.126758 
83312000    283.81012    330.90919    286.48496   -30.890065    30.512603    44.424229    40.126324 
83316000     274.4732    316.29173    280.80303   -30.653849    31.777265    35.488693    40.124755 
83320000    274.48083    290.96305    292.40988   -28.704256    31.121132   -1.4468355    40.123324 
83324000    283.23135     360.0121     271.4011    -32.61976    31.889688    88.610997    40.123843 
83328000    275.52707    326.88485    268.51558   -32.990199     31.51366    58.369277    40.123978 
83332000    286.14128    343.32423    292.96605    -32.62968    30.040834    50.358186    40.123228 
83336000    271.16001    327.67096     276.2163   -32.421671      30.9633    51.454658    40.123522 
83340000     271.5798    324.40252    267.21454   -30.863456    31.017922    57.187979     40.12407 
83344000     265.2986    291.42567    271.53379    -29.03861      30.3886     19.89188    40.123203 
83348000    264.49275    302.29872    260.39375   -30.529393    31.276129    41.904973    40.123802 
83352000    273.75911    297.42964    284.09945   -31.204027    29.838464    13.330189    40.124523 
83356000    274.80234    310.68951    316.10512   -31.080678    28.944368   -5.4156033    40.125882 
83360000    280.02997    318.00043    297.20143   -31.991336    29.291009    20.799006    40.124394 
83364000    277.12241    303.33632    300.28378   -31.696295    29.366731    3.0525398    40.124147 
83368000    270.69122    297.96617     251.6998   -30.950168    31.408292     46.26637     40.12446 
83372000    282.97807    323.16108    295.64311   -32.963757    29.822491    27.517968     40.12355 
83376000     269.5473    295.19717    260.76455   -29.735619    31.901873    34.432612    40.123165 
83380000    271.55038    328.40906    249.94265   -31.877179    32.012381    78.466408    40.124918 
83384000    276.26952    310.24378    289.02411   -30.790398    31.010757    21.219675    40.125708 
83388000    270.67863     331.2249    264.45114     -32.2514    32.936115    66.773754    40.126846 
83392000    268.98945    299.46381    275.28828   -30.879881    32.134261    24.175531    40.126593 
83396000    288.04795    350.46256    285.09076   -33.894923      31.0624    65.371801     40.12719 
83400000      273.923    315.50397    288.35038   -30.813723    32.407504    27.153588    40.127758 
83404000    271.15476     319.1171    281.13525   -31.735919    30.939908    37.981854     40.12858 
83408000    275.40674    332.73506    285.60392   -31.868009    31.172738    47.131145    40.128834 
83412000    273.47001    315.39232    283.54178   -30.150224    31.229066    31.850534    40.128339 
83416000    271.59568    320.59213    282.54153   -29.390499    31.192386      38.0506    40.125619 
83420000    281.88103    339.54316    288.73189     -31.1085    29.920827    50.811268    40.125254 
83424000     265.8827    306.07188    304.19248   -29.355077     29.36289    1.8793963    40.125327 
83428000    264.92523    296.90197    267.79145   -29.420592    31.017136    29.110517    40.124541 
83432000    257.51426    312.05661    246.97995   -28.639375    32.454647    65.076662    40.124525 
83436000     261.6011    320.04134    263.10928   -30.191775    32.929598    56.932051    40.123711 
83440000    273.43126    316.08415    282.63218     -30.5955    31.956992    33.451969    40.122577 
83444000    259.70634    283.83875     282.0516   -28.747739     29.84913    1.7871435    40.121727 
83448000    272.26875    312.53823    282.75198   -30.642585    31.164476    29.786249    40.122076 
83452000    278.71153    334.33013    293.14916   -30.883474    30.931287    41.180967    40.121136 
83456000    280.12028    327.56681    298.41285   -30.585149    30.115056    29.153964    40.121347 
83460000    275.81364    306.92034    300.66151   -29.712657    29.471192    6.2588321    40.120561 
83464000    267.61873    326.51135    275.61988   -30.773356    31.363074    50.891461    40.119935 
83468000    275.91495     313.8466    292.57001   -29.799713    31.406102    21.276594    40.119713 
83472000    279.85878    331.96252    299.47525   -31.523966    30.586246    32.487271    40.120796 
83476000    277.91432    334.04538    287.60737   -30.505157    31.112486    46.438011    40.120176 
83480000    277.98935    327.06499    302.31361    -31.10141    30.107221    24.751379    40.119257 
83484000    273.45161    308.22152    289.34392   -30.381002    31.094223    18.877596    40.119019 
83488000    269.05414     315.6392    290.77327   -29.910556    30.309635    24.865933    40.118404 
83492000    269.05914    300.68665     270.5119   -29.140235    31.646804    30.174756     40.11792 
83496000    259.47533    287.78552    277.56974    -28.75279    32.080045     10.21578    40.118924 
83500000    264.04475    308.93422    271.65728   -29.008961    32.142814    37.276946    40.119212 
83504000    272.20067     312.0685    286.88388   -29.147979    31.307736    25.184618    40.119372 
83508000    277.40561    336.32212    278.89553   -30.904622    31.198228    57.426586     40.11856 
83512000    262.78187    324.47481    258.03555   -29.594309     33.08044     66.43926    40.118245 
83516000    265.33907    336.36498    276.05947   -31.561594    32.337133    60.305519     40.11983 
83520000    260.61689    304.56055    269.85234   -29.212893    32.652619    34.708215    40.118359 
83524000    265.09912    332.31226    267.15775   -30.786319    32.386034    65.154515    40.118873 
83528000    268.59213    337.77204    268.76445   -30.282656    32.066741    69.007582    40.118704 
83532000    277.08766    360.60196    282.65416   -30.536902     32.05598    77.947802     40.11882 
83536000    263.86124     319.5445    278.07037   -28.662332    32.488384    41.474129    40.119751 
83540000    264.72868    307.86275     276.2312    -27.30227    32.390528    31.631549    40.118965 
83544000    268.33991    322.72893    276.52471   -29.028548    33.088299     46.20422    40.119995 
83548000    265.61847    314.99928    276.77947   -29.463863    32.291528     38.21981    40.120527 
83552000    268.05069    309.30065    285.12482   -29.051363    31.653866    24.175826    40.119579 
83556000     267.5416    322.38765    274.36141   -29.711171    32.516885    48.026241    40.119266 
83560000    266.33665    328.30592    276.39303   -29.323404    33.681523     51.91289    40.120003 
83564000    268.56678    310.32936    290.90507    -29.61412    33.192014    19.424298    40.120135 
83568000    265.14767      300.464    284.11209   -27.902883    33.411674    16.351904    40.119486 
83572000    261.21144    325.37653    269.15226   -29.511326    34.387859    56.224273     40.11942 
83576000     269.4827     325.6823    275.92632   -30.071988    33.617493    49.755975    40.120332 
83580000    272.83084    331.46371    300.51615   -29.395124    32.993062    30.947553    40.120657 
83584000    274.28925    335.42393    288.43472   -29.509718    34.431172    46.989208    40.121138 
83588000    267.32147    325.41834    285.47467   -30.328392     33.36973     39.94367    40.121246 
83592000    255.40094    295.87897    265.31579   -29.428115    33.956643    30.563171     40.12059 
83596000    261.49426    322.09123    263.78071   -30.231728    33.447173     58.31052    40.120491 
83600000    253.82679    290.23199    283.91793   -28.915257    33.350033    6.3140648     40.11939 
83604000    272.20851    316.65406    303.36035   -29.084157    31.688133    13.293704    40.119242 
83608000    262.74426    303.07338    280.32203   -28.989378    32.693809    22.751348    40.118363 
83612000    271.00443     316.9628    284.05511   -29.902681    32.611795    32.907692    40.119591 
83616000    268.87796    313.52472    278.94969   -30.699599    32.658334    34.575028    40.119458 
83620000      269.137    339.83582    277.64367   -30.941823    32.751414    62.192155    40.120354 
83624000    266.96604    320.68826    283.93827   -28.986392    31.725937    36.749987     40.11967 
83628000    262.02049    304.09079    291.36125    -28.31046    32.715627    12.729544    40.118011 
83632000     262.7218    333.31728    275.49245   -30.371527    33.377229    57.824828    40.118294 
83636000    275.61485    347.89964    297.29556   -31.736305    32.266973    50.604082    40.118279 
83640000    263.93816    308.01485    271.14526   -28.893841    33.302318    36.869587    40.118064 
83644000    262.00992    308.44678    279.69636   -29.610291    33.191886    28.750423    40.117979 
83648000    263.19048    324.11954    264.72896   -29.270978    35.090452    59.390579    40.118501 
83652000    271.40793    337.93121     288.3427   -30.010941    33.064088    49.588505    40.117552 
83656000    251.77141    308.44279    259.78543   -28.152367     34.61483    48.657357    40.117014 
83660000    259.49728    315.24567    269.10327   -28.182967    32.915988    46.142401    40.117201 
83664000    264.27481    307.69369    284.33208    -28.17521    32.726149    23.361611    40.118024 
83668000    262.03328    313.63437    277.76812   -29.344808    32.754554     35.86625    40.117435 
83672000    269.82682    320.01938    290.84346   -28.979169    32.337787    29.175925    40.116065 
83676000    274.12214    307.64071    307.66971   -28.885527    31.859984 -0.028995918    40.115617 
83680000    278.27126    333.86316    276.35056   -30.285114    32.284095    57.512598    40.115211 
83684000    261.82756    297.93655    282.95334   -28.877197    32.616994    14.983215    40.115245 
83688000    269.39697    303.62388    287.76756   -28.234444    32.896695    15.856324    40.115141 
83692000    270.63317    326.02582    294.53353   -30.240916    33.100526    31.492286     40.11541 
83696000    268.34901    314.96206    270.91108    -28.65057    34.296529    44.050975    40.115547 
83700000    267.81345    315.05691    281.34836   -29.007452     33.26574    33.708549    40.114728 
83704000    271.17001     313.8605    300.70463   -29.361654    32.859292     13.15587    40.114865 
83708000    264.72889    330.75664    266.46075    -31.33552    33.803213    64.295884    40.114503 
83712000    271.41085    315.55714    285.19467   -29.536593    32.774306    30.362468    40.114804 
83716000    268.50544    341.69308    285.07349   -30.419305     33.33758    56.619585    40.114711 
83720000    269.54138    327.72598    270.47381   -29.822054     33.07498    57.252166    40.116186 
83724000    276.99723    337.32105    293.20733   -30.433082    32.501805    44.113726    40.117216 
83728000    260.99398    298.48116    262.75532   -29.254716    33.033937    35.725843    40.118125 
83732000    260.14752    300.56229    281.01853   -29.399927    31.635645    19.543761    40.117677 
83736000    279.77073    331.75318    298.01655   -31.399814    31.426667    33.736633    40.118106 
83740000    263.62269    304.73445    279.85648   -30.855888    33.186337    24.877975    40.117983 
83744000    263.35871    310.82911    275.10048   -30.958269     33.46755    35.728637    40.118373 
83748000    263.47721     296.3674    273.43794   -30.568823      33.2737    22.929462    40.117649 
83752000    270.00395    307.73214    288.03638   -30.150535    32.751748     19.69576    40.117648 
83756000    268.07333    315.44336    271.01143   -30.747964    32.824879    44.431933     40.11699 
83760000    273.34446    321.01376    286.26072   -31.415815    31.140052    34.753039    40.117967 
83764000    272.31365    310.24614    286.89275    -30.35823    32.590914    23.353387      40.1175 
83768000    277.66261    324.18916    292.02076    -31.22487    32.370338    32.168406    40.116482 
83772000    267.31691    322.83185    270.82875   -31.339448    32.926959    52.003106    40.116745 
83776000      269.464    310.64691    266.26137   -29.951103    33.153006    44.385542    40.116734 
83780000    277.91423    320.91478    292.99069   -30.913517    31.518276    27.924085    40.116814 
83784000     262.4133    297.15476    272.79747    -30.23957    33.154625    24.357281    40.116723 
83788000    267.63204    315.20504    281.49159   -31.225357    32.244213    33.713451    40.116289 
83792000    272.78574    321.76806    285.62448   -30.921844     32.26605    36.143572     40.11556 
83796000    277.76624    310.92668    280.00263   -30.745584    32.176971    30.924042    40.116969 
83800000    275.82194     344.7099     291.2385   -34.745816    31.982067    53.471398    40.116439 
83804000    272.50459    317.44746    289.07482   -31.685112    32.347219     28.37264    40.115233 
83808000    278.46843    341.72432    285.95482   -31.325831     32.17666    55.769495    40.115661 
83812000    281.40556    322.73468    310.00961   -30.856592    31.160357    12.725061    40.116143 
83816000    277.36966    315.08321     298.2823    -30.67009    31.060906    16.800911     40.11635 
83820000    271.45092    312.01126    286.01948   -30.740098    32.936111    25.991773    40.115852 
83824000    275.17286    316.43126     302.8536   -30.170144    31.980995    13.577659    40.116453 
83828000    273.48048    324.34396    283.94841   -31.706376    32.531548    40.395556    40.116101 
83832000    270.85322    311.85898    285.42484   -31.199838    31.576582    26.434141    40.115079 
83836000    271.61946    330.86502    276.14461   -32.614222    32.726304    54.720405    40.114604 
83840000     275.6757    310.85219    319.08296   -30.650658    31.347258   -8.2307684    40.114604 
83844000    267.55541    324.66008    282.89474    -32.92715    32.572567     41.76534    40.115822 
83848000     259.6045     318.5863    258.67726   -30.726678     34.10093    59.909047    40.116259 
83852000     273.8095     315.3689    287.18243   -30.083633    32.756708    28.186465    40.115921 
83856000    269.82991    313.23084    284.39956   -31.732698    32.978976    28.831276    40.117154 
83860000    260.78175    305.47751    273.77005   -31.230273    33.352298    31.707459    40.116563 
83864000    270.06404    334.72895    277.53139   -30.736328    33.571463    57.197561    40.117593 
83868000    275.03169    317.90383    287.38594   -31.133008    33.180461     30.51789    40.116876 
83872000     264.2048    297.64375    270.10462   -30.450555    33.612307    27.539127    40.117065 
83876000     268.4176    327.42719    271.14301   -31.813521     34.10657    56.284179    40.117021 
83880000    270.06363    325.89673    275.91139   -32.421207     34.16001    49.985336    40.117034 
83884000    262.28072    302.31389    261.92744   -31.382278    33.526658    40.386449    40.116839 
83888000    262.71852    298.62571    288.01268   -30.226927    32.206207     10.61303    40.117067 
83892000    264.64221    309.67279    276.46341   -30.853389    33.299044    33.209384     40.11735 
83896000    275.43232    337.00408    289.71889   -32.463478    33.384731     47.28519    40.118023 
83900000    270.00026    322.69714    291.35945   -31.727331    32.258362    31.337683    40.116127 
83904000    275.72595    316.15496    298.66698   -31.628008    31.646778    17.487981    40.115834 
83908000    267.61784    325.99881    263.70311   -31.979276     35.01774    62.295701    40.116741 
83912000    268.47606    318.47231    281.49017   -32.031091    32.658615    36.982137    40.116913 
83916000    268.22449    317.40647    278.82575   -31.789781    33.206196     38.58072    40.116717 
83920000     283.8707    336.22659    295.53064   -33.202384    31.821961    40.695946    40.118684 
83924000    274.99533    337.53954    273.62497   -33.087386    32.461926    63.914569    40.119722 
83928000    282.83011    342.37573      295.687   -32.373238    31.611362    46.688731    40.120368 
83932000    274.83134    309.16681    290.18461   -31.299742    31.740248    18.982204    40.121427 
83936000    268.17773    300.96551    295.89787    -30.15504    32.324773    5.0676431    40.120782 
83940000    276.91072     338.0014    276.44306   -32.276185    32.593047    61.558336    40.120803 
83944000    265.81327    318.14733    279.99628   -31.660823     33.66756     38.15105    40.120185 
83948000    269.51227    333.23551    268.90061   -32.235887    33.017766    64.334898    40.119816 
83952000    271.70563    300.81653    285.95814   -30.592974    32.338701    14.858397    40.119554 
83956000    278.85493    326.80783    298.78498   -32.520544    32.883856    28.022852    40.119696 
83960000    276.66606    339.69466    270.98382   -32.317055     34.86335    68.710839    40.120224 
83964000    275.01508    324.68485    279.45765   -31.618639    32.764547    45.227196    40.120785 
83968000    281.95111    332.96695    293.56924   -32.960835    32.171383    39.397711    40.121694 
83972000    276.36965    323.67796    281.00688   -32.938929    33.015264    42.671075    40.122737 
83976000    271.12999    320.10355    273.97951   -32.939568    33.568561    46.124047    40.122789 
83980000    277.92646    320.18973    291.30972   -32.367328    31.648455     28.88001    40.124042 
83984000    275.88878    321.09671    288.53987   -33.663596    32.254315     32.55684    40.124112 
83988000    270.68395    317.99866    260.09057   -33.672216    34.826037    57.908096    40.123878 
83992000     283.6673    344.45336    269.13219   -35.235699    32.800008    75.321174    40.124636 
83996000    281.32638    322.91841    277.47976    -32.91037    32.712719    45.438651    40.123983 
84000000    275.98121    314.74997    290.84246   -33.458339    32.197171    23.907503    40.124111 
84001000     271.0115    327.74787    262.39357   -34.284843    33.712471    65.354299    40.124111 
Loop time of 23598.8 on 4 procs for 16000000 steps with 1498 atoms

Performance: 14.645 ns/day, 1.639 hours/ns, 678.002 timesteps/s
99.5% CPU use with 4 MPI tasks x no OpenMP threads

MPI task timing breakdown:
Section |  min time  |  avg time  |  max time  |%varavg| %total
---------------------------------------------------------------
Pair    | 11814      | 16280      | 20938      |3435.5 | 68.99
Bond    | 73.546     | 113.86     | 151.88     | 356.0 |  0.48
Neigh   | 131.73     | 131.77     | 131.8      |   0.2 |  0.56
Comm    | 298.02     | 4596.7     | 9077.5     |6331.3 | 19.48
Output  | 8.9148     | 9.0118     | 9.3013     |   5.6 |  0.04
Modify  | 1251.1     | 1916       | 2613.7     |1112.1 |  8.12
Other   |            | 551.7      |            |       |  2.34

Nlocal:    374.5 ave 714 max 35 min
Histogram: 2 0 0 0 0 0 0 0 0 2
Nghost:    2379 ave 4278 max 496 min
Histogram: 2 0 0 0 0 0 0 0 0 2
Neighs:    13150.2 ave 25992 max 315 min
Histogram: 2 0 0 0 0 0 0 0 0 2

Total # of neighbors = 52601
Ave neighs/atom = 35.1142
Ave special neighs/atom = 0.518024
Neighbor list builds = 28818
Dangerous builds = 0

write_restart FINALCONFIG
WARNING: Using a manybody potential with bonds/angles/dihedrals and special_bond exclusions (../pair.cpp:218)
Neighbor list info ...
  update every 1 steps, delay 0 steps, check yes
  max neighbors/atom: 2000, page size: 100000
  master list distance cutoff = 16
  ghost atom cutoff = 16
  binsize = 8, bins = 3 3 23
  4 neighbor lists, perpetual/occasional/extra = 4 0 0
  (1) pair lj/cut, perpetual, skip from (4)
      attributes: half, newton on
      pair build: skip
      stencil: none
      bin: none
  (2) pair morse, perpetual, skip from (4)
      attributes: half, newton on
      pair build: skip
      stencil: none
      bin: none
  (3) pair eam, perpetual, skip from (4)
      attributes: half, newton on
      pair build: skip
      stencil: none
      bin: none
  (4) neighbor class addition, perpetual
      attributes: half, newton on
      pair build: half/bin/newton
      stencil: half/bin/3d/newton
      bin: standard

#and everyone lived happily ever after, THE END
Total wall time: 6:51:45
