LAMMPS (16 Mar 2018)
#lammps script for united atom polymer simulation (full-scale run)

# 1. INITIALIZATION
#allows pair, bond, bending and dihedral interactions
atom_style molecular

  # periodic (video game) boundaries in all cartesian directions
boundary p p s

  # uses real units (instead of units based on pair potential parameters).  List of units used in manual
units metal

###########
# 2. ATOM DEFINITION
##########

   ##
   # Read in data from starting configuration file
   ##

#read_data lammps-AT-config

 #use to restart
read_restart RESTART
  orthogonal box = (0 0 -29.1214) to (20 20 152.979)
  1 by 1 by 4 MPI processor grid
  1498 atoms
  197 bonds
  96 angles
  95 dihedrals
  2 = max # of 1-2 neighbors
  2 = max # of 1-3 neighbors
  4 = max # of 1-4 neighbors
  6 = max # of special neighbors

   ##
   # Specify the nature of the bond interactions
   ##

bond_style harmonic
bond_coeff 1 19.51 1.54
bond_coeff 2 22.45 1.82
bond_coeff 3 10000.0 2.0
special_bonds lj 0.0 0.0 0.0 angle no dihedral no

angle_style harmonic
angle_coeff 1 2.683 114.00
angle_coeff 2 2.683 114.40

dihedral_style opls
dihedral_coeff * 0.06071 -0.011743 0.1363628 0.0

mass  1   14.00
mass  2   32.06
mass  3  196.97
mass  4  196.97


pair_style hybrid lj/cut 14.0 morse 14.0 eam
pair_coeff 1 1 lj/cut 0.00395 3.95 14.0
pair_coeff 2 2 lj/cut 0.01594 3.62 14.0
pair_coeff 3 3 eam Au_u3.eam
Reading potential file Au_u3.eam with DATE: 2007-06-11
pair_coeff 4 4 eam Au_u3.eam
pair_coeff 1 2 lj/cut 0.0000 3.785 14.0
pair_coeff 1 3 lj/cut 0.00258 3.44 14.0
pair_coeff 1 4 lj/cut 0.00 3.44 14.0
pair_coeff 2 3 morse 0.879 1.47 2.7 14.0
pair_coeff 2 4 morse 0.000 1.47 2.7 14.0
pair_coeff 3 4 lj/cut 0.00 2.934 14.0


group freeze type 4
100 atoms in group freeze
fix startend freeze setforce 0.0 0.0 0.0



################
# 3.  Simulation Settings
###############

neighbor        2.0 bin
neigh_modify    every 1 delay 0 check yes



# Define some variables
variable Lx          equal xhi-xlo   # Ang
variable Ly          equal yhi-ylo   # Ang
variable Lz          equal zhi-zlo   # Ang

variable dz          equal ${Lz}/30  # Ang
variable dz          equal 182.100820164033/30  

variable zzlo        equal zlo  # Ang
variable zzhi        equal zhi  # Ang
variable vol         equal ${Lx}*${Ly}*${Lz}  # Ang^3
variable vol         equal 20*${Ly}*${Lz}  
variable vol         equal 20*20*${Lz}  
variable vol         equal 20*20*182.100820164033  
variable TEMP        equal 300.00 # K
variable TThi        equal 320.00 # K
variable TTlo        equal 280.00 # K
variable dt          equal 0.00025 # ps

timestep     ${dt}
timestep     0.00025

variable zlo1      equal -26.0
variable zlo2      equal -11.0
variable zhi1      equal 135.0
variable zhi2      equal 150.0

# heat layers

region          hot  block  INF INF INF INF ${zlo1} ${zlo2}
region          hot  block  INF INF INF INF -26 ${zlo2}
region          hot  block  INF INF INF INF -26 -11
region          cold block INF INF INF INF ${zhi1} ${zhi2}
region          cold block INF INF INF INF 135 ${zhi2}
region          cold block INF INF INF INF 135 150
compute         Thot all temp/region hot
compute         Tcold all temp/region cold


# Second Equilibration
fix             1 all nve
fix             hot all langevin ${TThi} ${TThi}  0.005 59804  tally yes
fix             hot all langevin 320 ${TThi}  0.005 59804  tally yes
fix             hot all langevin 320 320  0.005 59804  tally yes
fix             cold all langevin ${TTlo} ${TTlo} 0.005 287859 tally yes
fix             cold all langevin 280 ${TTlo} 0.005 287859 tally yes
fix             cold all langevin 280 280 0.005 287859 tally yes
fix_modify      hot temp Thot
fix_modify      cold temp Tcold

variable        tdiff equal c_Thot-c_Tcold
thermo_style    custom step c_Thot c_Tcold f_hot f_cold v_tdiff
thermo            4000
run             800000
WARNING: Using a manybody potential with bonds/angles/dihedrals and special_bond exclusions (../pair.cpp:218)
Unused restart file peratom fix info:
  fix style: STORE, fix ID: layers_COMPUTE_STORE
Neighbor list info ...
  update every 1 steps, delay 0 steps, check yes
  max neighbors/atom: 2000, page size: 100000
  master list distance cutoff = 16
  ghost atom cutoff = 16
  binsize = 8, bins = 3 3 23
  4 neighbor lists, perpetual/occasional/extra = 4 0 0
  (1) pair lj/cut, perpetual, skip from (4)
      attributes: half, newton on
      pair build: skip
      stencil: none
      bin: none
  (2) pair morse, perpetual, skip from (4)
      attributes: half, newton on
      pair build: skip
      stencil: none
      bin: none
  (3) pair eam, perpetual, skip from (4)
      attributes: half, newton on
      pair build: skip
      stencil: none
      bin: none
  (4) neighbor class addition, perpetual
      attributes: half, newton on
      pair build: half/bin/newton
      stencil: half/bin/3d/newton
      bin: standard
Per MPI rank memory allocation (min/avg/max) = 10.93 | 11.62 | 12.32 Mbytes
Step c_Thot c_Tcold f_hot f_cold v_tdiff 
134401000    319.07772    282.72778           -0           -0    36.349942 
134404000    338.62272    263.23554  0.071052164     1.037857    75.387182 
134408000     334.7589    265.67826   0.42575127    1.2108192    69.080636 
134412000    321.46688    284.86496  0.038990281 -0.025573719    36.601919 
134416000    313.62846    286.62224    1.0430669  -0.69758213    27.006213 
134420000     305.9558    299.50575    1.4434264   -1.1447741    6.4500474 
134424000    321.14325    272.52932   0.43474666   0.60019203    48.613924 
134428000    335.85914     281.5902  -0.72615525  0.076191866    54.268941 
134432000    332.50946    290.45663   -1.0834837  -0.69118023    42.052837 
134436000    344.50433    274.04891   -2.4710328    1.1430483    70.455413 
134440000    323.70495    266.67498  -0.21281471   0.67194902    57.029966 
134444000    331.45209    282.39489   -1.3210119  -0.31421753    49.057198 
134448000    336.40281    280.31892   -1.8413241   0.47610359    56.083888 
134452000    326.25515     268.8704  -0.45477266   0.40152353    57.384746 
134456000    306.37318    272.25561  -0.61226253     1.090498    34.117573 
134460000    325.69222    284.99437  -0.78093075  -0.30674169    40.697849 
134464000    319.92527    284.89389  -0.87473218   0.11469966    35.031378 
134468000     319.2826    299.44841   -1.3079958  -0.81098613    19.834186 
134472000    333.53632     289.5069   -1.2001147   0.63471416     44.02942 
134476000    337.36643    281.29916  -0.63747406   0.90049881    56.067274 
134480000    307.27466    288.86639   0.51307335   0.50537801    18.408267 
134484000    324.21112    282.56592  -0.69165146   0.93979399    41.645201 
134488000    339.83843    292.21883   -1.0481108 -0.087115368    47.619596 
134492000    302.56536    286.54589     1.907259   0.28197749    16.019471 
134496000    324.24971     270.9536  -0.37551113    1.9496431    53.296111 
134500000    325.03235    294.45943  -0.14393009    1.5252791    30.572923 
134504000    313.18333    280.29167  -0.61628721    1.3022541    32.891659 
134508000    327.05498     280.7586   0.58748679    1.3384379    46.296386 
134512000    335.36779    256.77345  -0.43807546    1.2270941    78.594335 
134516000    333.10735    296.86825  -0.81088181   0.15942482    36.239101 
134520000    317.31538    285.97856   0.18744942 -0.077933265    31.336812 
134524000    306.78165    265.56663   0.48962057   0.61277714    41.215023 
134528000     296.7876    284.29413   0.98337211   0.19866929    12.493467 
134532000    335.76473    269.62723   -0.9106749    1.7039941    66.137501 
134536000    310.21984    302.72333   -1.5663712   -0.4014888    7.4965156 
134540000    319.05077    298.68547   -1.1563902  -0.46234535    20.365295 
134544000    332.96941    293.93704   -2.1887568  -0.28208099    39.032372 
134548000    330.44895    274.46171   -1.7282658   0.30521485    55.987246 
134552000    324.42121    262.11084   -1.5603023     2.462172    62.310374 
134556000    324.30633    276.82925   -1.5729358    1.4259462    47.477086 
134560000    307.89528    284.06051   0.30343122   0.95722313    23.834769 
134564000    339.86818    289.80307   -1.6077156  -0.19116949    50.065106 
134568000    322.55148    300.46664   -1.3491457  -0.22548566    22.084837 
134572000     319.2555     256.5686   -1.6696883    1.6222347    62.686898 
134576000     290.8228     261.7768  -0.19938128    1.7773553    29.045997 
134580000     303.2809    290.73532   -2.1472141    1.4198808    12.545582 
134584000    334.30914    274.14353    -1.396522    1.4400319    60.165612 
134588000    313.44865    301.03887  -0.58169233  -0.18332566    12.409781 
134592000    337.89081    281.37422   -2.5935086    2.3242798    56.516585 
134596000    336.51421    281.40698   -3.3155596    1.7401033    55.107229 
134600000    310.58776    297.28231    -2.246406   0.26630481    13.305452 
134604000    306.20136    282.74764   -1.5495335   0.47319428    23.453719 
134608000    324.45314    280.89494   -1.4251896    1.5914386    43.558195 
134612000    315.88648    263.02971  -0.79152891    2.6440959    52.856767 
134616000     328.3284    274.21679  -0.70509615    1.5941627    54.111613 
134620000    315.04834    290.14269   0.19711653 -0.031597688    24.905645 
134624000    313.27639    275.16633  -0.86674694    1.2923558    38.110059 
134628000    322.84637    265.38684  -0.64055563    2.2314243    57.459527 
134632000    365.38843    258.91286   -2.9481072    1.0064247    106.47557 
134636000    301.30373    283.53879   0.33548111   0.87806575    17.764943 
134640000    308.58013     286.0176   0.69217033   0.55899549    22.562528 
134644000    306.11742     263.7045   0.69739743    1.3236754    42.412917 
134648000    318.99716    286.23378   0.24068082   0.95815902    32.763385 
134652000     305.5122    296.28291   0.37986723    1.0180409    9.2292873 
134656000    324.21907    285.44574   0.14266555    1.4565324    38.773333 
134660000     317.9631    275.37802   -1.0721631    1.9498712    42.585081 
134664000    324.94694    272.14073  -0.97993698    1.4601736    52.806212 
134668000    321.00595    296.11561   -1.4766363 -0.023756237    24.890347 
134672000    323.35913    263.63224   -1.2637841    2.2659949    59.726892 
134676000    314.84815    276.01941   -1.2282537    -0.123721    38.828741 
134680000    332.44204    285.46644    -3.465612  -0.15018118    46.975594 
134684000    311.71386    305.75531   -1.8419179  -0.71106432     5.958544 
134688000    318.28154    291.09406    -1.880601   0.35694972    27.187474 
134692000    327.59746    278.84012   -1.4480695   0.62056035    48.757344 
134696000    336.77707    259.48334   -2.0373797    1.3805614    77.293739 
134700000    329.28584    294.57834   -1.7533095  -0.37367779    34.707505 
134704000    299.09765    278.10461   0.28599165     2.037778    20.993046 
134708000    319.72187     270.4989  -0.11514543     1.986012    49.222968 
134712000    318.83597    295.24819  -0.89274196   0.30308206    23.587774 
134716000     331.0677    283.71795  -0.44082183    1.4285225    47.349747 
134720000    303.49322    267.56301   -1.0522783    1.2382663    35.930202 
134724000    299.90151      260.558  -0.97455156    3.0385719    39.343507 
134728000    295.15659    278.36281   0.29140099    2.7296233     16.79378 
134732000    328.34332    279.56724   -2.1829105     1.622701    48.776081 
134736000    337.12857    278.07911   -2.5597392   0.99418108    59.049466 
134740000    303.16911    293.53391   -1.2392904    1.3765066    9.6352001 
134744000    330.27323    273.85986   -2.1401504    2.5503587    56.413363 
134748000    322.64057    278.28179   -1.0844587    2.7466593     44.35878 
134752000    301.49851    279.85167  -0.86391584    2.5480335    21.646837 
134756000    307.35749    277.81095  -0.66634596    2.5335425    29.546539 
134760000    327.53783    272.61309   -1.3976941    2.0826642    54.924745 
134764000     341.4872    288.48133   -1.7315595    2.2064193    53.005872 
134768000    318.88718    290.64094   -2.5813046    1.9137584     28.24624 
134772000    307.07177    289.28796   -1.7472772    1.3904868    17.783809 
134776000    310.10639    300.49498   -1.3383162   0.95137856    9.6114144 
134780000    300.68535    262.60751   -1.3483104    2.2519271    38.077842 
134784000     311.9389    272.81056   -1.6612333    2.6757975    39.128342 
134788000    314.33325    295.43434   -2.4601242     1.161523    18.898914 
134792000    312.46824    300.62119   -2.7727688    0.9943495    11.847051 
134796000     327.4047     271.3559   -3.2521548    2.6177488    56.048799 
134800000    300.14409     270.2354   -1.7301422    3.2814445    29.908693 
134804000    334.84892    284.78727   -3.2500313    1.8460352    50.061653 
134808000    330.69031    282.34526    -3.705565    1.6014557    48.345052 
134812000    334.45793    294.42941   -3.1337618    2.0281254    40.028527 
134816000    315.60156    264.47427   -1.8993019    3.7713543     51.12729 
134820000     344.6792    291.91171    -3.976425      1.61626    52.767487 
134824000    314.23424    280.56403   -3.5063832    2.5153708    33.670207 
134828000    307.88124     291.1929   -2.2737978    1.2782862    16.688339 
134832000    305.51405    296.25864   -2.1480019    1.8013774    9.2554091 
134836000    337.10237    290.44394   -2.9628919    2.0091452    46.658435 
134840000     308.4267    271.15006   -1.7087229    1.7310407    37.276646 
134844000    319.83035    271.63413   -4.1711779    2.4376058     48.19622 
134848000    338.25162    262.06586   -4.4019751    4.1710715    76.185766 
134852000    305.36585    239.04329   -1.8096556    4.4155303    66.322556 
134856000    310.85314     294.7916   -1.1240101   0.60807754    16.061537 
134860000    323.16934    305.01713   -2.4505762   0.63214405    18.152211 
134864000     330.1937    283.84359   -2.6565521    1.0614704    46.350108 
134868000    309.23894     276.2537   -3.0598561    1.3859546    32.985234 
134872000    317.62893    301.01521   -3.2425884   0.64289003    16.613712 
134876000    324.02506      295.975   -2.8740845    1.3759426    28.050053 
134880000    305.72983    241.30411   -1.1714256    3.6654604    64.425716 
134884000    337.27001    280.14674   -3.4470926    1.4224556    57.123262 
134888000    318.58985    276.10783   -2.4410371   0.86731888    42.482025 
134892000    318.42352    263.01745   -1.8078276    1.8731512    55.406066 
134896000    327.69162     276.5101   -1.4752146    1.3329538    51.181522 
134900000    326.27688    275.75003   -2.2760416    1.1626276    50.526854 
134904000    306.96213    283.51973  -0.13027414   0.78273434    23.442398 
134908000    314.62427    289.43206   -1.6071709   0.78390408    25.192205 
134912000    318.83289    289.40028    -2.176533   0.12539725    29.432613 
134916000    343.77311    292.24685   -2.1709933  -0.55972688    51.526263 
134920000    317.76257    279.17806   -1.1667476    1.4008017    38.584512 
134924000    318.98684    279.20991   -1.6710685   0.81909531    39.776929 
134928000    334.77735    271.09492   -3.2374032    0.9755218     63.68243 
134932000    314.00393    275.06965   -2.3246283    1.6029115    38.934273 
134936000    296.69838    276.33009   -1.9882221    1.4492973    20.368291 
134940000    314.41812    295.07777   -2.6828394   0.98842242    19.340346 
134944000    315.77471    270.25594   -2.4907555    2.0302718    45.518774 
134948000    329.12596    270.50339   -1.9176472    2.0658609    58.622564 
134952000    298.30243    291.18613    -1.428464   0.89903138    7.1163023 
134956000    331.22961    268.18021    -2.276809    1.7909626    63.049405 
134960000    339.51016    282.63458   -2.9550238   0.35514905     56.87558 
134964000    324.10841    276.71377   -2.0729514     1.468389    47.394647 
134968000    333.58288    287.76493   -1.7307569   0.57458046    45.817957 
134972000    344.84101    276.84028   -3.2919375    1.9054401    68.000733 
134976000    312.31303    275.82146   -2.3553302     1.769626    36.491573 
134980000    308.29058    300.14239   -1.5825903 -0.010150326    8.1481896 
134984000     319.5585    287.28798   -1.6322174   0.98163513    32.270522 
134988000    329.45921    288.21583   -2.8356226     1.316224    41.243378 
134992000    307.17221    303.18261   -1.5708764   0.55606665    3.9896067 
134996000    328.28862    289.44763   -1.5243448     1.302611    38.840996 
135000000    332.09448    282.89714   -2.4264936    1.4069498    49.197348 
135004000    317.48009    280.87892   -1.4175593    1.6932999     36.60117 
135008000    333.60656    259.46318   -3.8340261    1.5739694    74.143385 
135012000    298.00539    276.84858    -2.575806      1.84945    21.156803 
135016000    318.57153    292.41925   -3.5357296 -0.040087484    26.152274 
135020000     310.4348    280.90634   -3.2877469     2.401081    29.528463 
135024000    320.41325    279.92967   -2.9773478    1.9109011    40.483589 
135028000    326.66661     291.6152     -3.79358   0.81557237    35.051415 
135032000      337.383    288.93038   -3.5028129   0.68603465    48.452625 
135036000    341.29909    281.41484   -2.5686231    1.5424021    59.884254 
135040000    321.35198    285.92526   -2.6673026    1.3966162    35.426719 
135044000    309.04953    274.08341   -2.8051484    1.1092107    34.966114 
135048000    310.59641    280.27147   -2.9689826   0.55784519    30.324932 
135052000    329.07419     282.9271   -3.7026264     0.376631    46.147093 
135056000    344.73609    290.47972   -4.2509255   0.65873696     54.25637 
135060000    319.83108    263.66536   -2.8362322    2.1737391    56.165722 
135064000    312.49764    283.59269   -4.0416387    2.1637968    28.904947 
135068000    303.12316    280.77925   -2.0400625    1.9141126     22.34391 
135072000    311.78984    263.95623   -2.7975372     1.949865    47.833608 
135076000    323.61549     271.6603   -3.4500855    2.2970398    51.955189 
135080000     330.8419    291.24988   -2.9738818   0.27878556    39.592012 
135084000      304.842    278.99945   -2.3869962    1.2754615     25.84255 
135088000    348.56497    288.48697    -3.173012  -0.16803599    60.077998 
135092000    334.98121    291.55727    -3.150154  -0.18006631    43.423946 
135096000    347.69622    294.31648    -3.742066   0.15479599     53.37974 
135100000     307.4672    281.14943   -3.1515001    1.4394033    26.317767 
135104000    326.74135    285.30195   -2.5521753    2.0912491    41.439397 
135108000    310.17703     291.4206   -2.4311254  -0.13198829    18.756427 
135112000    326.87279       271.85   -1.3253445    1.2924335    55.022788 
135116000    319.30375    266.99955   -1.6626835    1.5223418    52.304201 
135120000    310.08713    280.08939    -1.628434    1.0499006    29.997745 
135124000     342.8979    282.27768    -3.572185   0.43449063    60.620225 
135128000    323.90117    271.85526   -2.2169008     2.143714     52.04591 
135132000    308.08028    274.19193   -1.7547784    1.5110664     33.88835 
135136000    304.80704    271.10657   -1.4953657    2.2404887     33.70047 
135140000    306.30346    272.92427  -0.25211995    2.7830531    33.379186 
135144000    338.32333    267.99558   -1.9026567     2.713951    70.327747 
135148000    328.15951    279.86587   -1.8444939    2.1482936    48.293638 
135152000    328.95122    283.03031   -2.1835501   0.61449925    45.920913 
135156000    328.03308    284.84004   -2.7264259    2.2473952    43.193039 
135160000    324.94442     277.3032   -2.5339393    2.0336642    47.641217 
135164000    332.94374    271.64245   -2.6338798     3.711939    61.301284 
135168000    335.36487     274.1694   -2.9568766    2.6932324    61.195467 
135172000     320.7753     285.3654   -2.2859164    2.0872901    35.409897 
135176000    320.91905    280.22219   -2.0113837    1.5383671    40.696859 
135180000    317.63283    297.50949   -2.1862326   0.86279684    20.123335 
135184000    320.68032    274.91838   -1.5593496    3.2569438    45.761936 
135188000    329.09908    259.99921   -2.3404498     3.317398    69.099869 
135192000    304.54965    286.09045  -0.99793023    1.9908833    18.459192 
135196000    314.88429    271.69024   -1.5525857     3.646736     43.19405 
135200000    304.09482    256.89415   -1.4232691    4.9999168    47.200666 
135201000    332.65601    286.13671   -2.2732231    3.8509792    46.519292 
Loop time of 1060.09 on 4 procs for 800000 steps with 1498 atoms

Performance: 16.300 ns/day, 1.472 hours/ns, 754.652 timesteps/s
99.7% CPU use with 4 MPI tasks x no OpenMP threads

MPI task timing breakdown:
Section |  min time  |  avg time  |  max time  |%varavg| %total
---------------------------------------------------------------
Pair    | 529.78     | 733.61     | 940.88     | 739.3 | 69.20
Bond    | 3.2593     | 5.1104     | 6.8578     |  77.3 |  0.48
Neigh   | 5.7286     | 5.7319     | 5.7333     |   0.1 |  0.54
Comm    | 13.685     | 210.72     | 409.71     |1351.3 | 19.88
Output  | 0.005352   | 0.013412   | 0.017261   |   4.1 |  0.00
Modify  | 56.04      | 80.102     | 105.62     | 212.4 |  7.56
Other   |            | 24.81      |            |       |  2.34

Nlocal:    374.5 ave 714 max 35 min
Histogram: 2 0 0 0 0 0 0 0 0 2
Nghost:    2372.75 ave 4252 max 496 min
Histogram: 2 0 0 0 0 0 0 0 0 2
Neighs:    13076.8 ave 25844 max 315 min
Histogram: 2 0 0 0 0 0 0 0 0 2

Total # of neighbors = 52307
Ave neighs/atom = 34.9179
Ave special neighs/atom = 0.518024
Neighbor list builds = 1398
Dangerous builds = 0
unfix 1


# PRODUCTION

fix             1 all nve
fix             hot all langevin ${TThi} ${TThi}  0.005 59804  tally yes
fix             hot all langevin 320 ${TThi}  0.005 59804  tally yes
fix             hot all langevin 320 320  0.005 59804  tally yes
fix             cold all langevin ${TTlo} ${TTlo} 0.005 287859 tally yes
fix             cold all langevin 280 ${TTlo} 0.005 287859 tally yes
fix             cold all langevin 280 280 0.005 287859 tally yes
fix_modify      hot temp Thot
fix_modify      cold temp Tcold

variable        tdiff equal c_Thot-c_Tcold
thermo          4000

dump gigo all atom 4000 dump.cords_xyz.dat
dump_modify gigo scale no
dump vfgigo all custom 4000 dump.velo.dat id vx vy vz fx fy fz

# thermal conductivity calculation
# # reset langevin thermostats to zero energy accumulation
#
compute         ke all ke/atom
variable        temp atom c_ke/1.5/0.00008617333262

fix             ave all ave/time 100 40 4000 v_tdiff ave running
thermo_style    custom step temp c_Thot c_Tcold f_hot f_cold v_tdiff f_ave

#compute         layers all chunk/atom bin/1d z lower 0.05 units reduced
compute         layers all chunk/atom bin/1d z lower ${dz} units box
compute         layers all chunk/atom bin/1d z lower 6.0700273388011 units box
fix             2 all ave/chunk  100 40 4000 layers v_temp file profile.langevin

run             16000000
WARNING: Using a manybody potential with bonds/angles/dihedrals and special_bond exclusions (../pair.cpp:218)
Neighbor list info ...
  update every 1 steps, delay 0 steps, check yes
  max neighbors/atom: 2000, page size: 100000
  master list distance cutoff = 16
  ghost atom cutoff = 16
  binsize = 8, bins = 3 3 23
  4 neighbor lists, perpetual/occasional/extra = 4 0 0
  (1) pair lj/cut, perpetual, skip from (4)
      attributes: half, newton on
      pair build: skip
      stencil: none
      bin: none
  (2) pair morse, perpetual, skip from (4)
      attributes: half, newton on
      pair build: skip
      stencil: none
      bin: none
  (3) pair eam, perpetual, skip from (4)
      attributes: half, newton on
      pair build: skip
      stencil: none
      bin: none
  (4) neighbor class addition, perpetual
      attributes: half, newton on
      pair build: half/bin/newton
      stencil: half/bin/3d/newton
      bin: standard
Per MPI rank memory allocation (min/avg/max) = 12.22 | 12.33 | 12.44 Mbytes
Step Temp c_Thot c_Tcold f_hot f_cold v_tdiff f_ave 
135201000    271.69223    332.65601    286.13671           -0           -0    46.519292            0 
135204000    270.48005    340.50549    259.58529  -0.77323484    0.7034655      80.9202            0 
135208000    270.90899    329.78064    268.62064  -0.16010765  -0.71118197    61.159995    38.372948 
135212000    273.56783    320.67642    282.88848  -0.34976157   -2.3568373    37.787935     38.61007 
135216000    273.29179    311.96575    288.08962   0.24786067   -1.2266112    23.876125    38.823997 
135220000    273.84534    308.99278    299.15457    0.6901091   -1.7189392    9.8382079    39.000846 
135224000     271.3824    327.14067    270.65811  -0.68609196   -1.2829322    56.482562    40.193831 
135228000    283.90966    330.98354    303.43949  -0.50304332   -3.7609536    27.544047    39.741528 
135232000    274.60989    328.23469    279.66115  -0.92627794   -1.5238056     48.57354    39.744258 
135236000    282.66322    346.02792    261.94267   -2.2890942  -0.26221881    84.085246    40.101582 
135240000    272.14287    333.30767    266.94629   -1.4324771  -0.87555814    66.361382    39.994357 
135244000    280.16443    338.48707    285.40668   -1.2825478   -1.8477624    53.080389     39.75711 
135248000    275.40667    326.79667    290.05742   -1.4192316    -2.831616     36.73925    40.082424 
135252000     282.0464    338.70101    273.02282   -2.3596537  -0.96683878    65.678188    40.214549 
135256000    277.10645    328.76204    276.98966   -1.3917222  -0.98311382    51.772386    39.992116 
135260000    275.14473    320.58457    280.17908   -1.9205574   -1.8224371    40.405488    40.060332 
135264000    271.63147     308.3209    284.65681  -0.80550461   -1.6897112    23.664084    39.876645 
135268000    270.73239    317.68498    290.73843   -1.2892353   -1.2991904    26.946553    39.959529 
135272000    275.37454    321.00064    288.96251   -1.0408964  -0.45534597     32.03813    40.227432 
135276000    269.51352    322.87223    272.64916  -0.45805547  -0.50767911    50.223077    40.155667 
135280000    272.18828    313.14677    282.24831  -0.49108039   -1.5568094    30.898462    40.369108 
135284000    276.17614     307.6869    301.23674   0.14806185   -2.9338785    6.4501598    40.198982 
135288000    262.90235    326.73076    259.30742 -0.012826559  -0.68603552    67.423334    40.348673 
135292000    267.85724    305.62786    286.99375 -0.031268576   -1.4257364    18.634111    40.206245 
135296000    260.80729    292.18385    265.96607   0.70574009   -1.1642391    26.217774    40.281219 
135300000    266.63692    305.87002    279.42374    1.1187447  -0.66650548    26.446274    40.134728 
135304000    270.23689    327.71852    270.57058  -0.80687105  -0.87186786    57.147941    40.099742 
135308000    273.66513    321.68773    284.22969   0.12249472   -1.6530796    37.458038    40.094932 
135312000    270.09529    317.77825    263.50149   0.51730055  -0.55082063    54.276761    39.966315 
135316000    278.85331    325.88444    298.78658   -1.5531653   -1.9592426    27.097858    39.906909 
135320000    267.90486    299.10997    272.80914    1.4889391   -1.3199018    26.300831    39.938206 
135324000     258.5755    282.86514    272.68645    1.3508883   -1.6659635     10.17869    39.840864 
135328000    265.13109    300.00756    286.21949   0.60197879   -1.9716326    13.788078    39.622018 
135332000    269.28708      320.317     273.5197   0.12769405   -1.4188521    46.797303    39.687893 
135336000    269.69027    290.06363    292.74681    1.1035375   -2.9297214   -2.6831807    39.592823 
135340000    283.45273     339.4307     296.3957  -0.89958517   -2.7494605       43.035    39.533402 
135344000    271.20301    311.70801     268.8587  -0.69061278   -1.7587617     42.84931     39.57985 
135348000    279.77716    328.71667    281.24987   -1.1265736   -2.0001164    47.466808    39.534448 
135352000    270.02883    329.38592    255.71656   -1.0608073   -1.4772594    73.669361    39.553895 
135356000     276.5924    332.11058    262.52642   -1.7182119  -0.79914394    69.584162    39.716435 
135360000    275.46722    314.72882    284.44908   0.55693406   -1.3904713    30.279743    39.858565 
135364000    284.17573    324.47422    299.39782  -0.42853289   -2.8218564    25.076401    39.896115 
135368000    276.91026    304.17741    284.85733   0.17315226   -2.2046298    19.320075    39.827381 
135372000    262.64831    320.81803     247.5724  -0.84291331   -1.1388368     73.24563    39.913242 
135376000    278.40894    328.74731    278.55209  -0.71937635   -1.6844476    50.195224    39.935833 
135380000     273.4069     327.1478    259.00214 -0.015985028  -0.61067088    68.145661    39.965758 
135384000     271.8569    317.23245    285.75181 -0.042982326   -2.4952475    31.480644    39.952431 
135388000    273.64975    310.73257    277.56344    1.1103878  -0.82677636    33.169137    39.973736 
135392000    286.59767    366.20224    277.89509   -1.8881339   -1.0948044    88.307149    39.921636 
135396000    276.79057     353.4105      279.703    -1.585103  -0.55987335      73.7075    39.946665 
135400000    272.60867    302.07534    297.18908    1.3937651   -2.3388338    4.8862525     39.89328 
135404000    264.10404     302.4901    287.95435    2.8811431   -0.5875973    14.535756    39.894637 
135408000    267.58239    314.92268    253.81701   0.76282292    1.1196466    61.105668    39.875386 
135412000    260.91042    304.99495    275.95029    2.3188161  -0.58426223     29.04466    39.970246 
135416000    273.67461    306.29028    289.89773    1.7751892   -1.6804668    16.392551    39.908152 
135420000    263.16557    294.47357    290.85845    2.5657507   -2.8899055    3.6151109    39.873101 
135424000    270.34436    336.75591    269.62544  -0.29800633   -1.4900918    67.130469    39.854538 
135428000    271.34984    314.55732    267.96433    0.5049585   0.10540853     46.59299    39.916399 
135432000    269.71745    329.44483    261.40413   0.10583868  -0.49821911    68.040704    39.878467 
135436000    273.44813    329.98054    287.22428  -0.34799788   -2.6295503    42.756263    39.793405 
135440000    267.94255     299.8639     284.1305    2.3960236   -1.6640491    15.733401    39.828393 
135444000    269.99763    330.52255    259.01513    1.1698499   0.11611474    71.507422    39.863862 
135448000    283.11103     341.2692    295.76485   0.22733574   -1.9396368    45.504356    39.888625 
135452000    274.37883    310.79284    297.15676   0.94266377    -2.943641    13.636085     39.83762 
135456000    281.40736    329.37772    282.22171   0.95123889   -1.9804221    47.156002    39.829115 
135460000    275.16249    340.41641    272.82274    1.1159557  -0.79972016    67.593677     39.91779 
135464000    273.24659    334.31901    267.14909   0.56084501   -1.9622879    67.169922    39.929271 
135468000    276.97244    334.76112     283.2992   0.88735051   -1.1013026    51.461916    39.946887 
135472000    280.02812    342.99282     279.6376   0.55679399   -1.0520344    63.355216    39.920354 
135476000    265.62438     311.6874    265.17316    1.8446814   -1.1522839    46.514243    40.017579 
135480000    268.55117    318.01514    272.58344   0.71913164   -2.2210547    45.431704    39.972438 
135484000    278.46385    339.58897    281.92343  -0.74475112   -2.4710459    57.665538    39.941013 
135488000    280.28208    342.59104    287.84968   0.14875932   -2.1775596    54.741365    39.969148 
135492000    275.52462    332.99367    285.38811   0.39756422   -2.5817348    47.605555    39.990252 
135496000    261.78431    296.46856    275.56901    1.7133435   -1.7775019    20.899544    39.951105 
135500000     274.1237     332.8926    290.80925   0.22708634   -3.0666277    42.083349    39.949561 
135504000    265.21746    304.44232     279.7529    2.6737446   -2.2377488    24.689417    39.952603 
135508000     265.6367    323.50439     263.9364    1.0211721   -1.7513226    59.567982    39.918671 
135512000    280.35162    333.90796    292.37692  0.006090071   -3.8581791    41.531039    39.884227 
135516000    271.60846    317.93724    286.79884   0.71520857   -1.7646789    31.138401    39.881538 
135520000    265.61507    310.27581    260.20955    1.6371867   -1.4827871    50.066267    39.876321 
135524000    264.28106    302.05945    268.74703     1.526126   -2.2092088    33.312425    39.880706 
135528000    276.51143    325.86923    289.08918    1.3438344   -3.2942922     36.78005    39.844801 
135532000    276.06801    344.18031    278.47998    1.2125081   -2.9200597    65.700328     39.90133 
135536000    275.54621    316.81144    278.18102    2.4060002   -2.3924853    38.630423    39.891373 
135540000    276.30842     310.3662    290.30096    1.2099729    -2.002446    20.065244    39.882423 
135544000    266.50067    307.70291     271.7061    2.3130744  -0.69124383    35.996814    39.849379 
135548000    270.30109    338.19886    269.28353   0.55919658   -0.7932745    68.915323    39.841106 
135552000    264.30021    328.20375    260.06301   0.94442068  -0.58329325    68.140736    39.879946 
135556000    266.30086    336.60228    272.96642    2.2125345   -1.7372647    63.635859      39.8859 
135560000    277.84536     322.9621    281.07837    2.1201578    -1.764334    41.883728    39.880766 
135564000    271.45236     335.5979    280.50602    1.2025961    -1.548019    55.091879     39.87993 
135568000    272.49165    316.68914    303.64882    2.8341432   -2.2116776     13.04032    39.890842 
135572000    273.98453    312.39898    295.08618    2.8616432   -2.9486398      17.3128    39.942517 
135576000    270.44185    297.02773    299.81239    3.8155762   -3.2509383    -2.784658    39.973818 
135580000    265.73616    301.89913    263.70154    2.7396478   -1.5298733     38.19759    39.975715 
135584000     264.7821     300.3597    280.35501    3.4709206   -2.1656648    20.004692    39.938001 
135588000    272.38525    327.23089    291.48992    1.2147685   -2.5679621    35.740969    39.973094 
135592000    274.95061    315.11423    293.16739   0.86794182   -2.4965533    21.946841    39.960689 
135596000    279.62553    330.96738    294.33408 -0.0058732716   -3.0933938      36.6333    39.941005 
135600000    269.54547    323.86097    265.27159  -0.46053234   -2.2309242     58.58938    39.909871 
135604000    282.29825    337.00756    285.28788   -0.9144066   -3.7760223    51.719677    39.883815 
135608000    281.44835    323.39048    283.55319   -1.7340514   -3.2711341     39.83729    39.866355 
135612000    279.21498     318.5959    290.93581  -0.19190308   -3.2058549    27.660092    39.890731 
135616000    277.13521    330.30414    284.19927   -1.0312332   -1.4100793    46.104867    39.869776 
135620000    275.36383    328.07709    279.19167    -1.408698   -1.5717118    48.885412     39.83783 
135624000    283.00385    335.77417    294.76887  -0.71338539   -2.6554801    41.005301    39.836788 
135628000    274.53336    306.15106    293.34257    1.3891799   -1.6795579    12.808497    39.829982 
135632000    270.73805    285.61492    295.87104    1.4300969   -2.6333682   -10.256121    39.763726 
135636000    271.19798    307.57466    296.47195   0.23870546   -1.8714106    11.102709    39.795948 
135640000    273.04775    317.78955    274.88009    1.4507671   -2.0266114    42.909465     39.76693 
135644000    267.90703    322.06294    287.08038   0.59769566    -2.055599    34.982566     39.74464 
135648000     275.9888    325.41044    273.91175  -0.83272866   0.44849219    51.498682    39.762414 
135652000    270.13919    312.62861    265.16431   0.77785297   -1.3702678    47.464292    39.744959 
135656000    279.70915    337.18706    297.85047  -0.72954426   -2.7480246    39.336589    39.782528 
135660000    283.99923    331.20175    300.98875  -0.70195689   -3.1710631    30.212991    39.810897 
135664000     273.0373    318.55653    290.97994  -0.73399459   -2.7113362    27.576594    39.802633 
135668000    265.76024    286.79776    296.32318 -0.065288562   -2.3277197   -9.5254176    39.798374 
135672000    267.64869    302.82687    300.88306   -1.0565812    -2.336049      1.94381    39.822393 
135676000    275.03032     295.8803     280.4353   0.42314204   -2.5761481    15.445004    39.808917 
135680000    270.06985    317.23599    252.66661  -0.47359587  -0.16761119    64.569381    39.775367 
135684000    278.40701    319.11797    288.46452  -0.59271217   -2.4954485    30.653445    39.787441 
135688000    275.05951    335.66357    278.28453  -0.94944548   -2.9392756    57.379031    39.756405 
135692000    267.64587     311.7491    269.39499    1.1063574     -1.04157    42.354105    39.758272 
135696000    274.81219     328.6002    293.20545  -0.74016034   -1.8719026    35.394754    39.803741 
135700000    281.00481    332.67963    286.21853  0.081163742   -1.5188626    46.461105    39.804457 
135704000    268.37816    313.39439    269.76424  0.074909586   -1.8839497    43.630142    39.794655 
135708000    280.01269    332.19761    291.34988  -0.66231798   -2.3565762    40.847737    39.817916 
135712000    269.82066    301.70284    285.13625  -0.42113265   -1.6016317    16.566584    39.832042 
135716000    266.03285    315.65917    263.53034   0.78376004   -1.3442919    52.128828    39.826932 
135720000    275.75373    334.09511    276.58834  -0.23867695  -0.58434623    57.506773     39.84923 
135724000     276.8164    322.50799    295.22226  -0.19745708   -2.6056478    27.285739     39.81726 
135728000    262.83946    288.82865    274.47853   0.43148006  -0.77828433    14.350121    39.838873 
135732000    267.36931    311.95886    273.21909   0.70250891  -0.75690252    38.739773    39.837008 
135736000    269.61284    307.96257    290.19089  -0.13061927   -2.1211196    17.771684    39.835891 
135740000    283.22653    328.55585    297.33984   -1.0011393   -1.9028935    31.216009    39.817145 
135744000    272.57779    337.18815    275.50483  -0.87468787   -1.7025042    61.683317    39.817099 
135748000    274.37813    316.39279    283.56268   0.77375748   -1.7678975    32.830116     39.84674 
135752000    278.50646    323.00475    301.87286    1.8071809    -2.501762    21.131883    39.835599 
135756000    270.03944    335.63405    262.31858 -0.048257725  0.029060093     73.31547    39.836474 
135760000    270.99123    327.87258     280.8726     0.461497   -1.2349996    46.999979    39.826808 
135764000    273.85591    309.69471    292.56983    1.6538647    -2.228103    17.124882      39.8415 
135768000    263.04446    301.84388    278.05737    2.2802915   -1.1115581     23.78651    39.878239 
135772000    271.01221    317.41871    277.53869  0.013882396    -1.907376    39.880016    39.883704 
135776000    266.95925    291.88429     277.1692    1.5997166  -0.88697692    14.715096    39.854688 
135780000    272.53104    307.79958     299.4182   0.47514037  -0.61534496    8.3813804    39.841789 
135784000    271.76591    318.68488    275.09334   0.88567021  -0.55043576    43.591543    39.855745 
135788000    283.84679    344.83635    281.89072  -0.92347109   -2.6733566    62.945625    39.887127 
135792000    277.54236     319.4185    284.16811 -0.018821811   -1.7541414    35.250388    39.876818 
135796000    275.01981    312.12369    293.27349    0.6338361   -2.3983115    18.850196    39.876895 
135800000    273.04487     309.5925    282.23988   -0.2704981   -1.7817381    27.352626    39.875708 
135804000    274.42385    330.17645     293.6548  -0.83303703   -2.5607943    36.521652    39.860504 
135808000    268.68484    335.62044     266.1582   -1.5389931   -1.1755637     69.46224    39.817671 
135812000     272.3589    316.92692    280.93158  -0.12414223  -0.89100166    35.995339    39.837983 
135816000    267.43783    319.62367    268.47279   0.54930554  -0.49293619    51.150879    39.828339 
135820000    271.21029    307.01194    273.84561    1.2798153   -1.0269881    33.166332    39.823229 
135824000    273.71035    327.86841     272.0947  -0.65004327  -0.28920478    55.773706    39.805971 
135828000    272.25301    308.99314    279.71424  -0.88448614  -0.11166257    29.278903    39.800892 
135832000     271.4127    323.66803    282.13117  -0.41587111  -0.89821157    41.536861    39.787414 
135836000    275.68152    351.35217    261.93686    -2.966315   -0.4850367    89.415318    39.807062 
135840000    271.86041    321.61313    271.65741  0.055938725  -0.69129659    49.955727    39.816205 
135844000    274.33515    329.95887    279.07128  -0.58234787   -1.3957985    50.887594    39.828521 
135848000    282.72436    341.37922    287.54089  -0.94622548   -1.8636027    53.838331    39.830277 
135852000    268.39776    326.53749    261.00679   -1.1537903 -0.0044132038    65.530701    39.863402 
135856000    273.27998    304.65464    278.12221    0.2410772  -0.33679588    26.532424     39.87098 
135860000    271.86827     319.1889     271.6642   0.63574216  -0.25638679    47.524696    39.878206 
135864000    279.23785     328.5722    291.95807  -0.80042464   -1.7074956    36.614122    39.879055 
135868000    263.92179    295.33729    269.10154    1.1932209   0.68775752    26.235749    39.879904 
135872000    268.65802    310.95075    256.28301   -0.8727328   -0.6409971    54.667737    39.877251 
135876000    272.30936    316.97358    271.57366  -0.41666106  -0.94991831    45.399917    39.890067 
135880000    273.91397    313.73171    283.54005 -0.00065833892   0.15419538    30.191663    39.909666 
135884000     275.9615     330.0523    287.57846  -0.66256531   -1.0041163    42.473843    39.924068 
135888000    266.52358    319.95558    268.95082  -0.12515465  0.015039167    51.004769     39.89768 
135892000      287.401    341.87115    308.33114   -1.5146477   -2.7995977    33.540009    39.879444 
135896000    280.83037    313.63001    308.46031  -0.94639256   -2.0750606    5.1697035    39.872732 
135900000    280.55763    360.97599    274.60636   -2.4010402   -1.4155185    86.369625    39.890828 
135904000    270.21194    314.16944    284.56724  -0.46587523  -0.30662432      29.6022    39.897409 
135908000    273.75501    317.96591     279.1198   0.47799824   -1.7813301     38.84611    39.911298 
135912000    266.99509    322.87331    263.04761  -0.21983668  -0.32950478    59.825707    39.945395 
135916000    272.90696    318.49298    272.05405 -0.092893274   -0.9714643    46.438935     39.93097 
135920000    274.09851    317.99274     284.4841  -0.20270724   -2.0611087     33.50864    39.957288 
135924000    273.20211    321.04462    277.85289  -0.56127556   -1.3870715    43.191733    39.972027 
135928000    278.08807    341.19722    281.08257   -1.8472956   -1.4787872     60.11465     39.98519 
135932000    269.20699    305.85055    295.09255  0.084249213   -2.2330219    10.758006    39.979753 
135936000    274.80375    324.62857    266.53744  -0.95913055  -0.93868069    58.091135     39.99691 
135940000    271.04464    323.57857    284.51006  -0.67901652  -0.90882132    39.068513    40.001523 
135944000    272.59908    318.47901    289.43805  -0.14700247  -0.57296534    29.040963    40.019674 
135948000    274.78441    325.57262    275.21951   -1.8599118 -0.064307819    50.353112    40.026902 
135952000    273.04076    297.10009    287.16733    0.5636416   -1.5614015    9.9327621    40.020139 
135956000    278.60365     314.5396    298.31644   -1.2011681   -1.4378808    16.223155    39.989487 
135960000    270.96602    323.66641     278.7986     -2.56287  -0.67552517     44.86781    39.993215 
135964000    272.50212    303.91581    275.89079   -0.8683681  -0.98735991    28.025014    40.001992 
135968000    270.90463    332.74668    292.20583   -1.8056331   -1.1639671    40.540851    40.004549 
135972000    287.43761    345.76447    291.29889   -2.1539314  -0.80621579    54.465579    40.010768 
135976000    277.59234    349.56267    289.18704   -1.9959953   -1.0163052    60.375624    40.010322 
135980000    280.66876    318.31442    301.97399  -0.78944546   -1.1335323    16.340427    40.045784 
135984000    271.52761    324.47956    284.17808  -0.15139076  -0.70808441     40.30148     40.03818 
135988000    273.18877    342.40363    255.25438   -1.5111902   0.15626148    87.149247    40.042113 
135992000    278.68361    321.01315    301.30045  -0.75291741   -2.7661443    19.712703    40.032368 
135996000    269.80701    333.58612    278.47501  -0.35417193  -0.52412453    55.111113    40.073833 
136000000    266.39594    305.88917    280.56503  -0.22216275 -0.060323403    25.324144    40.082166 
136004000    273.36991    310.58381    287.94783    0.1363133   -0.3936379     22.63598    40.077287 
136008000    279.88148    325.66389     278.8156   -1.2215157   -1.1490905    46.848281    40.099261 
136012000    273.17612    315.00893    284.57659   0.28478022   -1.6685717    30.432336    40.101606 
136016000    264.01809    302.15742    272.89514  -0.16637299   0.11481672    29.262281     40.09026 
136020000    274.76517    321.03707    301.55543   -0.2929934   -1.4521332    19.481645    40.064957 
136024000    277.72343    310.55368    292.49373 -0.055996885   -1.6566259    18.059944      40.0466 
136028000    276.77025    342.89463     281.7422   -1.6707259  -0.73299928    61.152431    40.062665 
136032000    276.79361    329.06335    289.31779    -1.494073   -1.5278534    39.745567    40.062415 
136036000    270.60419    301.16376    288.29616 -0.030371581   -1.2440336    12.867605    40.058379 
136040000    272.36093     330.3812    265.22594   -1.4146855    0.2874137    65.155258    40.048883 
136044000     267.1881    309.31281    273.88458  -0.61035527  -0.37093198    35.428222    40.032905 
136048000    275.02509     330.1462    281.49184   -1.9476304  -0.22261205    48.654356    40.042352 
136052000    269.42685    315.32197    281.46069   -1.5967823  -0.93528647    33.861275    40.049112 
136056000    286.63058    326.88833    300.16597   -1.4842085   -1.9789176    26.722359    40.048847 
136060000    266.78901    303.16244    277.95965   -1.4762067   -0.7950581    25.202788    40.043583 
136064000    272.79994    308.30979    275.83933   -1.7931722   -0.6227787    32.470461    40.050903 
136068000    264.13513    299.19558    270.34298  -0.50404399  -0.66624436    28.852594    40.031808 
136072000    266.67985    296.00805    291.79279 -0.031590769   -1.1580934    4.2152533    40.035917 
136076000    264.05849    314.93006    263.37235  -0.29326876    -0.251897    51.557704    40.027501 
136080000    275.82944    313.96521    297.44625  0.092424369   -1.4413215    16.518959    40.036129 
136084000    269.68485    303.61581    278.50479   0.42445364   0.80794736    25.111023    40.044318 
136088000    271.06514    324.26101    278.91753   -1.2483694   0.81272289    45.343478    40.036962 
136092000    269.53431    298.87437    291.75103    1.2173082  -0.28423443    7.1233337     40.04566 
136096000    268.96817    304.58057    283.77989   0.92208901  -0.92737557    20.800677    40.034609 
136100000    267.18536    321.60109    265.99932  -0.87440962   -1.1306173    55.601766    40.049368 
136104000    268.13116     309.5322    275.12226   0.23265917  -0.57804534    34.409946     40.05994 
136108000    278.45999    326.97905    293.24921  -0.51547612   -1.3102358    33.729837    40.078794 
136112000    279.65578    326.48576    275.58591   0.75376526  -0.85436718    50.899848    40.079381 
136116000    274.73982    328.93576    305.53149  -0.64638508   -1.5665025    23.404272    40.051578 
136120000    280.25053    319.34197    300.81985  0.011453058    -1.896456    18.522122     40.05388 
136124000    278.59258    331.01334    289.27289   0.17722788  -0.83238762    41.740457    40.069251 
136128000    268.97468    329.41271    279.12498   -1.0717841 -0.078821656    50.287737    40.082043 
136132000    272.72056    302.27746    287.14121  -0.13621787   0.22274077    15.136249    40.071543 
136136000    266.50261    304.60171    273.90316   0.38415017   0.55938459    30.698545    40.093261 
136140000    282.33767    340.60293    290.80208   -1.5402021  -0.79446317    49.800852    40.093584 
136144000    280.00786    330.58424    277.16455   -1.2896124  -0.40571724    53.419698    40.085732 
136148000    265.87053    313.67626    271.43008  -0.31532302  -0.15248466    42.246179    40.079593 
136152000    263.31061    311.01708    274.04995    0.9758452   -1.1297556    36.967136     40.07345 
136156000    268.52592    343.12006    262.06697  -0.87846949   0.89535046    81.053084    40.083584 
136160000    262.61603    297.70688    288.49402    1.5270835   -1.4634447    9.2128584    40.080553 
136164000    270.40087    310.36735    298.12298  -0.16552029   -2.2058487    12.244368    40.085254 
136168000    265.09181    308.86424    272.39905    1.6030659  -0.39332662    36.465189    40.076836 
136172000    270.40705    324.01401    302.90399   0.79245431   -1.6974648    21.110016    40.070272 
136176000    270.76234    313.61406    286.23636    0.9549713  -0.80381558    27.377704    40.095625 
136180000    273.72413    326.65446    311.36797  -0.73365743  -0.96292641    15.286488    40.100929 
136184000    261.79398    308.03152    266.98176  -0.56236792   0.50850959    41.049757    40.105872 
136188000    278.06717    340.97273    293.32891  -0.70371554  -0.74215518    47.643821    40.120726 
136192000    277.70195     338.4743    272.44206   -1.2057859    1.0624694     66.03224    40.128223 
136196000    281.60344    332.66328    297.89886  -0.49647687  -0.71126685    34.764417    40.142189 
136200000    273.30956    321.10886    283.50772   0.59276012  -0.48510415    37.601139    40.147171 
136204000    270.19712    323.79176    305.61336  -0.29280923   -2.2469059    18.178399    40.155596 
136208000    267.41449    311.26134    282.93879   0.49119539 -0.028729222     28.32255    40.150194 
136212000    263.87951    314.47676    272.91877    1.4722385  -0.14016147    41.557997     40.12873 
136216000    264.44108    303.26993    284.29258    1.4482852  -0.33894485    18.977348    40.143119 
136220000    270.63065    336.82002    279.96541    -1.580716  -0.57315585    56.854613    40.124743 
136224000    272.81579    316.42851     306.9585  -0.55974686   -1.2356278    9.4700088     40.11589 
136228000    273.84939    340.48149    271.49689   -1.0737419 -0.021223509    68.984604    40.116568 
136232000    264.81208     341.1381    278.31114  -0.16769076   0.32472637    62.826968    40.103334 
136236000    274.19752    343.94745    270.48245    1.1314488  0.073134979    73.464999    40.090503 
136240000    272.15974    316.70213    286.50057   0.63312986  -0.14231993    30.201565    40.072977 
136244000    276.23657    325.87616    284.25879   -1.7392196  -0.84938865    41.617369    40.054942 
136248000    266.50396    311.39789    285.43447  -0.66146743  -0.95843182    25.963423     40.02391 
136252000    261.43369    321.64547    255.96006  -0.02641249   0.74600715    65.685419    40.020158 
136256000    276.17983    344.04342    274.05753   -1.5465639   0.34729337    69.985891    40.018821 
136260000    269.00994    310.17057    291.24477    1.3676737  -0.44559282    18.925801    40.015792 
136264000    264.93109    314.01461    266.45009 -0.081499871  -0.12888995    47.564512    40.021306 
136268000    265.73132    316.34479    272.07922  -0.31823066   0.37746759    44.265563    40.022858 
136272000    270.97875    336.04767    269.37486   -1.6681671   0.17696627    66.672808     40.00513 
136276000    273.45282    332.25152      278.554   -1.6020855   0.23936427    53.697519    40.028199 
136280000    273.93783    330.61556    280.17759   -1.0913502  0.050189119     50.43797    40.021415 
136284000    265.67881    300.96009    280.35956 -0.045088745    1.4763324    20.600528    40.016981 
136288000    262.91548    322.02377    272.35426  -0.99725835    1.5784797    49.669504    40.026411 
136292000    277.04262    349.88595    264.65485   -1.7228446    1.6231289    85.231096    40.027374 
136296000    276.34024    330.40383    292.62613   -2.2633056  -0.33778117    37.777699    40.040726 
136300000    270.34796    316.53507    273.24121   -1.7586457   0.56895405    43.293859    40.038224 
136304000    284.08272    337.02682    305.88236   -2.3038062   -1.8412365    31.144458    40.025038 
136308000    279.72025    337.38874    269.36179   -1.4546492    1.2044587    68.026951     40.03325 
136312000    273.63504    308.52447    289.94349  -0.64419175  -0.16792097    18.580978    40.025195 
136316000    265.83528    319.52481    259.27677   -1.3383952    1.1788018    60.248046    40.031742 
136320000    267.52248      314.273    269.09872   -1.8222939  -0.21800132     45.17428    40.030307 
136324000     277.4209    322.23274    283.63585   -0.8721867   -1.8786157    38.596886    40.027864 
136328000    283.62173    339.25823    285.70216   -1.6001626   -1.9442832    53.556069    40.028473 
136332000    268.72077    317.42158    277.92158  -0.51821242    -1.434589    39.499996    40.038756 
136336000    270.36729    299.33045    287.90198   0.92927067   -2.0391291    11.428465    40.037499 
136340000    265.29736    306.98889    274.82697   0.70817748   -0.8620547    32.161922    40.055672 
136344000    260.19766    302.80038    259.42827    0.8090148   0.55640413     43.37211    40.051325 
136348000    266.96791    299.37472    283.95841   0.16533541   -1.3292626    15.416312    40.032868 
136352000    268.52633     315.3841     267.6493  -0.12249256   0.05028618    47.734793    40.022347 
136356000     281.3231    360.18631    279.05764   -2.9379093  -0.35780442    81.128668    40.009466 
136360000    267.99334     315.1591    275.11974   0.53891432  -0.43793067    40.039355    40.022051 
136364000    274.22573    330.59614    279.47342  -0.71788433  -0.19995837    51.122716    40.017306 
136368000    273.11492    327.59489    276.51621   -1.3636824  -0.17725866    51.078682    40.047054 
136372000    269.43828    320.05785    286.68269  -0.97204213  -0.64585501    33.375155    40.034796 
136376000    272.53786    311.51128    290.74407  0.068411745   -0.2690822    20.767203     40.04744 
136380000    274.59931    322.96317    267.15992  -0.38344599   -0.1072154    55.803245    40.052513 
136384000    272.09905    295.89346     280.5516  -0.09191892   -1.3913807    15.341856    40.061723 
136388000    273.90602    333.23354    283.36462   -2.0389647 -0.060054554    49.868922    40.078595 
136392000    263.06624    309.57666    258.60534  -0.72541674    1.1113707    50.971322    40.061378 
136396000    279.69262    329.69345    290.80067   -1.6138196   -1.3256275     38.89278    40.075037 
136400000    268.72221     301.2701    294.17895   -1.2441938   -1.1288337    7.0911465    40.071891 
136404000     290.2596    349.20652    279.05184   -3.6496706 -0.088338571    70.154679    40.075325 
136408000    279.81178    342.66184    286.14877   -2.6093827   0.73240094    56.513072    40.065177 
136412000    283.33696    308.04142    305.42411   0.23644643  -0.95696057    2.6173055    40.069424 
136416000    277.97325    335.92633    286.71489   -2.6193292   0.26450061    49.211434    40.082811 
136420000     273.7281    315.63765    279.83613   -1.6021592    1.7881206    35.801516    40.087134 
136424000    280.59088    327.40436    294.73641   -2.1866738   -0.2804997    32.667955    40.091571 
136428000    279.31408    341.59897    277.93844   -3.0287483   0.10267643    63.660531    40.087616 
136432000    280.82687    325.15585    281.98462   -2.7681441  -0.97476191    43.171229    40.092737 
136436000    268.90836    320.42415    275.05818   -1.8999338  -0.29059198    45.365961    40.082267 
136440000    273.63576    323.89853    275.47477   -1.7700817  -0.49668238     48.42376     40.07551 
136444000    270.54324    298.67143    274.62745  -0.57609109   0.86791571    24.043984    40.072236 
136448000    276.02354    322.50924    307.94051   -1.5445357  -0.84407065    14.568727    40.066592 
136452000    276.17862    326.34666    289.22291   -2.6405004   0.16305503    37.123748    40.065254 
136456000    285.81638    331.91681    315.60089   -1.9699677   -1.4795032    16.315923    40.074893 
136460000    273.94376    326.53147     274.7583  -0.95413917  -0.64965675    51.773168    40.092029 
136464000    265.66819    326.19068    260.69048   -1.4244456    1.7844602    65.500206    40.070043 
136468000    267.52934    292.21985    275.59378    1.5384923   0.11126596     16.62607    40.070668 
136472000    274.13349    321.86588    296.94413  -0.51607947  0.076171787    24.921755    40.047023 
136476000    270.15581    308.19304    278.97956  -0.98476027    1.8341372    29.213486    40.050208 
136480000    280.46408    330.89878    293.12913   -1.8804516    1.3425174    37.769644    40.040628 
136484000    263.56671    306.12353     275.9396   0.13647114   0.32148093    30.183936    40.022509 
136488000     257.6391    305.13988    264.68846  0.076655298    1.2003543    40.451421    40.027464 
136492000    272.01249    324.50578    285.17091   -1.6359538   0.45265943    39.334872    40.034674 
136496000    276.13883    316.73546    292.37182  -0.96237354   -0.3620917    24.363644    40.032494 
136500000    279.92528    318.86315     296.6508  -0.90928992   -1.2505155    22.212353    40.019404 
136504000    276.37891     326.1311    285.46207   -1.1249313   -1.2088951    40.669031    40.013147 
136508000    270.88704      330.089    264.14537   -2.1913234   0.18980325    65.943631    40.019096 
136512000    263.07473    317.17159    255.74854   -2.0519217   0.62355286    61.423048    40.023492 
136516000    278.69086     323.4769    278.42302   -2.9752403    1.3596461    45.053873    40.015579 
136520000     269.6951    314.59911    260.96516   -1.8889005   0.68479748    53.633948    40.015713 
136524000    283.78563    330.99503    281.17037   -2.1254195  -0.47058713     49.82466    40.006859 
136528000    273.37798    316.71897    277.09427  -0.96819319  -0.75768882      39.6247    39.999428 
136532000    269.24729    303.33857    281.25462  -0.24815205  -0.48796524    22.083957    40.004277 
136536000    260.53815    299.80939    258.21827 -0.071504916   0.68408855    41.591124    40.005297 
136540000    272.02602     321.8399    284.09318   -1.4523658  -0.63650739    37.746721    40.003247 
136544000    268.83371    316.30327    278.61846   -1.0250828   0.05097812    37.684811    40.013333 
136548000    279.69805    329.67313    297.68522    -1.827323  -0.51303301    31.987914    40.001138 
136552000    281.93574    323.68499    293.60843   -2.6131359  -0.61562393    30.076563    39.988311 
136556000    270.93521    312.27076     273.6667  -0.97779579    1.1310096    38.604056    39.987905 
136560000    275.36443    327.58581    282.15098   -1.9665085 -0.053719717    45.434831    39.985238 
136564000    276.32898    331.07574     264.9118   -1.0463149   0.15174149    66.163937    39.994968 
136568000    283.02376    320.84449    271.33192   -2.3439146    1.1610452    49.512575    39.991109 
136572000    270.02287    308.93686     289.3853   -1.5881376  -0.26670859    19.551564     39.99142 
136576000    275.88143    319.61189    282.70712   -1.1637993  -0.30681665    36.904766    40.006818 
136580000    275.13181    311.47965    284.37265   -1.2905466   0.49751277    27.106993    40.009363 
136584000    279.14652    327.79594    297.89719    -1.601666  -0.45427486    29.898752    40.017341 
136588000    272.75695    301.55919    283.18349  -0.88262684   0.22485464    18.375704    40.012078 
136592000    287.21853    336.63506    286.71034   -2.2443786   0.78562612    49.924722    40.011648 
136596000    280.20898    329.87388    283.53962   -2.4788243   0.67849982    46.334264    39.997569 
136600000    271.88155    317.24633    267.66111   -1.5074846    0.7563965    49.585224     39.99309 
136604000    274.03116      337.391    263.78076   -2.6847556   0.36464889    73.610244    39.997641 
136608000    262.98155    293.80907    273.52042  -0.56824434   -0.1946839    20.288652    39.980019 
136612000    273.83276    320.07488    282.65922    -1.913036  0.043876525    37.415654    39.973306 
136616000    281.76328    332.12941    297.35193   -1.4811245   -1.8954924    34.777473    39.966045 
136620000    276.34259     319.4086    281.83459   -2.0387938  -0.42313032    37.574013     39.96895 
136624000    283.94222    329.04891    299.10201   -3.2908369   -1.7155193    29.946896    39.967724 
136628000    275.00896    338.48093    280.59852   -3.5159462  -0.36917569    57.882404    39.966539 
136632000    277.19279    337.85541    284.20258   -2.1482249   -1.3429623    53.652824    39.966386 
136636000      269.691    319.88386    275.85427   -3.0244732   -0.3495411     44.02959    39.966215 
136640000    278.07861    312.54332    278.93942   -2.3278382   0.21490175    33.603904    39.978789 
136644000     282.1461    327.23761    293.25913   -2.8399435    -1.037428    33.978483    39.970416 
136648000    275.55702    321.01592     306.4701   -1.9374992   -1.5870668    14.545821    39.961293 
136652000    289.31332    334.54428    303.66646    -1.543515  -0.86189429    30.877819    39.983306 
136656000    269.80942    320.57318     257.3044   -1.7919503     1.245415    63.268775    39.989747 
136660000    273.25206    311.92821    288.33613  -0.53537683  -0.53228331    23.592083    39.993455 
136664000    284.05125    336.11199    280.19847   -2.2269497  -0.54357279    55.913522     39.99976 
136668000    267.72354    327.16042    259.62909   -1.6620457   0.33584775    67.531339    39.993338 
136672000    270.21591    303.99765    286.72953   0.42529706   -1.5320625    17.268124    39.988126 
136676000    267.61202    304.79904    290.93308   0.27226124   -1.3437442    13.865961    39.985306 
136680000    272.93813    306.93005    282.76677  -0.70304208  -0.66330524    24.163284    39.976943 
136684000    272.01417    316.43598    280.43599   -1.3257132  -0.70309814    35.999995    39.961539 
136688000     285.6689    329.57596    310.81591   -2.5241538   -2.6604937    18.760047    39.951975 
136692000    280.23327    332.14134    280.29855   -3.7703218   -1.3657689    51.842782     39.94524 
136696000    276.49593    344.23317      267.405   -3.1421382   0.19574599    76.828169    39.948293 
136700000    279.54475    328.86849    304.82631   -2.4804695    -1.529332    24.042182     39.94928 
136704000    268.77225    314.45122     277.0423   -1.9568509  -0.48478781    37.408929    39.941764 
136708000    267.65028      332.546    260.66432   -3.2733072   0.28892465    71.881675    39.960244 
136712000    275.25745    319.45383     273.6713   -2.9950647    0.3175768     45.78253    39.967165 
136716000    273.00639    333.99075    267.40107   -3.7063608    0.6563562    66.589684    39.962485 
136720000    275.31719    322.88804     281.3135   -2.3804601  -0.63631865    41.574541    39.968023 
136724000    275.46018    320.65276    271.28529  -0.86732304   0.87950448    49.367472    39.958123 
136728000      276.247    330.82402     281.6048   -2.1115336  -0.17058449    49.219227    39.968206 
136732000    268.72863    301.22799    278.59999  -0.12565978  -0.45524826    22.627994    39.971697 
136736000     269.4972    322.59308    279.65392   -1.9248408  -0.15265358    42.939154    39.979229 
136740000    268.31098    304.41182    282.49111   0.48779214 -0.0022576374    21.920711    39.991173 
136744000    269.55175    308.46895    272.24766   0.94565588    0.3250462    36.221297    39.990997 
136748000    267.93005    329.02656    282.44998  -0.26912711  -0.22799426     46.57658     39.99056 
136752000    270.02883    332.79546    266.27952   -1.7271641   0.55358996    66.515939    39.982551 
136756000    263.89874    323.53646    265.57499  -0.37371502  -0.27526601    57.961478    39.975868 
136760000    274.33363    318.26654    278.76472   -1.0765816  -0.48263319    39.501824    39.970608 
136764000    274.93237    317.41962    285.88497   -1.1883727  0.072479558    31.534649    39.966707 
136768000    269.02046    316.51692    288.49455   -1.6552294  -0.31082392    28.022368    39.967242 
136772000    269.48131     298.0064     276.6502  -0.58336917   -1.1449722    21.356197    39.975692 
136776000    279.23357    335.66866    291.61491  -0.59362208   -2.2541031    44.053756    39.968673 
136780000    289.11848    339.05166    307.43596   -3.5380896   -1.3688684    31.615702    39.960413 
136784000    275.66775    322.50659    278.68192   -2.1701335  -0.40529142    43.824668    39.969053 
136788000    273.06765    312.90373    286.80818  -0.85721229   -1.2970102    26.095555    39.963642 
136792000    274.16576    325.21306    267.09429  -0.32676299  -0.25690545    58.118774    39.974688 
136796000    272.02748    310.38792    272.66128  -0.52613635  -0.30411669    37.726643    39.971878 
136800000    278.90149    335.94128    279.92503   -2.1812453  -0.73704741    56.016253    39.972863 
136804000    277.66183    340.85838    278.86276  -0.99704129   -0.3212289    61.995623    39.984959 
136808000    277.07632    310.27286    288.65904   0.40613925   -1.4056278    21.613826    39.985028 
136812000    277.27258    332.73051    291.82434   -2.2267011   -1.7487985    40.906167    39.986458 
136816000    279.96604    335.50271    289.38884    -1.772383   -1.3516978    46.113872    39.989056 
136820000    274.93271    329.57931    262.87614   -1.8206636    1.0376031    66.703172    39.985682 
136824000    276.49782    327.97596    277.06017     -1.88026    1.2188663    50.915792    39.987009 
136828000    281.96865    334.17179    282.07991   -2.6385181  -0.28858326    52.091887    39.981941 
136832000    278.76796    319.51643    285.87861    -2.148157  -0.20673229     33.63782    39.977838 
136836000    273.74658    300.99399    290.66121   -1.6419864   -0.9221448    10.332786    39.974391 
136840000    268.61455    314.53935    261.60013    -2.253516   0.48863173    52.939222    39.985399 
136844000    270.71338    324.53759    274.25926   -1.5693735  -0.83920592    50.278334    39.981529 
136848000    272.81895    321.34917     272.0238   -1.5359659   0.16977083    49.325368     39.99161 
136852000    271.50173    331.36115    259.40787    -1.095811   0.20750309    71.953281    39.996992 
136856000    279.98082    331.43744    290.50765   -2.2760115   -2.1129031    40.929796      40.0015 
136860000    274.01586    316.02838    261.93489       -1.101   0.25651143    54.093486    39.990366 
136864000     273.0822    306.61801    269.57968   -0.3941304   -1.3687315    37.038334    40.001375 
136868000    273.02918    325.42264    280.70967   -2.2801253    -1.646745    44.712974     40.01361 
136872000    277.06489    339.99451    275.25005   -3.4004026  -0.81595047    64.744461    40.014936 
136876000    282.26471    349.95509     274.3594   -3.5402798  -0.81218257    75.595691    40.011536 
136880000    274.82955    326.79159    260.19372   -1.7477027   0.26336561    66.597871    40.015746 
136884000    264.35497    307.80357    255.53586  -0.11214139   0.43447796    52.267705    40.016844 
136888000    279.28432    327.28922    278.19291   -1.5942718  -0.44591111    49.096309    40.022427 
136892000     276.3479    299.21563    291.23786    0.9341042  -0.88920099    7.9777667     40.01815 
136896000    274.46795    321.25997     283.3664  -0.30297944  0.023489108    37.893564     40.01111 
136900000    280.41292    329.86113    275.55768   -2.8649324   0.13774036    54.303448    40.030667 
136904000    273.76819    296.01858    295.30642  -0.63568952  -0.75622472   0.71215827    40.039437 
136908000    274.85913    304.33293    294.47914   -1.0910514  -0.69145286    9.8537929     40.04959 
136912000    268.08402    310.53916     276.6689   -2.3421817   0.28986579    33.870264    40.046217 
136916000    277.62221    340.74536    273.62133   -2.4365716   0.22934667    67.124031    40.042591 
136920000    266.04748     304.8725    266.62963  -0.31170116   0.98345756    38.242874    40.048957 
136924000    282.17654    331.33418    290.91135   -1.5161261   -1.5149737    40.422835    40.044807 
136928000     277.3827    310.62765    272.27138   -1.0895072 -0.038903849    38.356261    40.042945 
136932000    275.25459    294.40192     298.6985    0.2266784   -2.0536285   -4.2965738    40.039157 
136936000    269.21255    306.93325    278.35132   -2.7903581  -0.45756512    28.581931      40.0471 
136940000    282.25954    329.43088    304.80314   -2.3878834   -1.2249656    24.627736    40.044819 
136944000    270.95521    327.54475    274.14042   -2.8301329   0.81004574    53.404329     40.05254 
136948000    271.75952    314.15979    276.82628   -1.8981594  -0.75299513    37.333509    40.036186 
136952000    276.66069    322.82856    273.48733   -3.2254187   0.15849263    49.341232      40.0375 
136956000    277.92271    305.41831    285.58759   -1.9027939   0.40054298    19.830727    40.028035 
136960000    271.22882    307.86734    278.94071   -2.3161929   0.39395906    28.926637    40.033865 
136964000    280.32908    319.35625    273.65688   -2.4043762   0.81771094    45.699371    40.035709 
136968000    275.74774    297.36787     286.5166   -1.9372955   0.15405832    10.851265    40.028266 
136972000     277.1056    312.10507    280.57209   -1.7826797   -0.6619254    31.532973    40.027863 
136976000    280.40187    337.98222    290.87813   -3.3796578   0.18658073    47.104093    40.028778 
136980000    281.92476    327.40001     282.4442   -4.8623985  -0.26307191    44.955811    40.021814 
136984000    286.36163    304.91849    300.12783   -2.2685843   -1.6086437    4.7906513    40.019792 
136988000    284.36621    337.72621    287.07178   -3.3380815   -1.0882244    50.654437    40.016923 
136992000    277.06852     295.8761     282.6812   -1.9717386  -0.90166864    13.194899    40.020649 
136996000    270.11616    304.27485    283.31966   -1.9599883    -1.376252    20.955191    40.013588 
137000000    275.75537    315.80014    270.35718   -1.5936684   -0.9095177    45.442953     40.01321 
137004000    286.05159    337.80788    278.66323   -3.2189175  -0.67201684    59.144655    40.014692 
137008000    279.30583    318.05499    280.20458    -3.038658  -0.94851043    37.850408    40.011349 
137012000    281.24286    343.81517     270.4599   -3.8311159  -0.81014304    73.355262    40.010517 
137016000    279.72621      311.628    278.80321   -2.7923518   -1.2893725    32.824789    40.007288 
137020000    282.75778    311.90849    296.42333   -2.9475726   -1.2636113    15.485166    40.003067 
137024000     278.7063    315.56577    271.69251   -2.9285989  -0.39616843    43.873259    40.007653 
137028000     275.5987    319.40608    259.96118   -2.2023478   0.40501366    59.444898    40.003183 
137032000    286.41005     311.8353    292.44673   -2.4704417    -2.368464    19.388565    40.005246 
137036000    278.07683    315.53517    274.17651   -2.7039172   -0.5420596    41.358663     40.00396 
137040000    275.92823    330.79866    248.47661   -3.0376627  -0.41705251    82.322053    40.017088 
137044000    284.68952    345.11088     283.4222   -4.0858464   -1.7474215    61.688688    40.014415 
137048000    277.10301    335.69415    274.83625   -1.9351701  -0.49857848    60.857898    40.021698 
137052000    278.76786    315.14202    289.95323   -2.4795074   -1.0441137    25.188795    40.031784 
137056000    275.12629    302.96855    293.29613   -1.4219225   -1.7116737    9.6724215     40.02675 
137060000     275.7029    307.85718    280.60203   -1.6839924   -1.5661577    27.255141     40.02663 
137064000    278.79363    311.35731    290.35865   -1.4308933   -1.4769207    20.998658     40.03464 
137068000     285.9016    327.13992    283.16718   -2.6755069   -1.4147646    43.972744    40.043568 
137072000    276.87845    318.96918    289.29109    -1.664767  -0.76857656     29.67809     40.04766 
137076000    276.64977    317.47307    270.10044   -3.1802965  -0.47954508    47.372633    40.047223 
137080000    275.32776    328.80695    267.86327    -3.150547  -0.28168326    60.943671    40.053039 
137084000    273.60623    321.28907    276.72963   -3.5495726  -0.45636624    44.559443      40.0543 
137088000    290.39424    350.73927    268.96333   -4.5562318   -1.0568134    81.775941    40.058738 
137092000    285.16866    335.16836    283.00714   -3.7244279   -1.7089538    52.161217    40.051345 
137096000    284.91611    326.18854    288.52442   -3.3345843   -1.1864731    37.664116    40.051988 
137100000    273.50721    302.96803    287.69156   -1.2815063   -1.7430601    15.276472    40.047268 
137104000    283.90955    313.02149    307.97589   -1.4080533   -3.1385196    5.0456017    40.039986 
137108000    283.70453    320.42282    279.69175   -2.9992481   -1.6347237    40.731072    40.041318 
137112000    279.49795    321.30712    294.64461   -3.2168964   -1.2972438    26.662504    40.045992 
137116000     272.9171    296.10557     267.0662   -2.2351502  -0.32150009    29.039372    40.040854 
137120000    274.78566    310.44063    268.56951   -3.1922412  -0.14055192     41.87112    40.042949 
137124000    278.78939       302.12     295.1655   -2.2334343   -1.5354479    6.9545051    40.037237 
137128000    279.40809    319.73748    278.76003   -1.8460393   -2.1234404    40.977448    40.034589 
137132000    276.71167    299.65671    283.92429  -0.66725049   -2.4124128    15.732417    40.020743 
137136000    291.70317    346.12303    283.73975   -4.6146564   -2.5494195    62.383277    40.020453 
137140000    280.29687    322.89888    276.74296   -3.6807508  -0.19980821    46.155921    40.025543 
137144000    285.08718    314.98036    296.82039   -3.5107474   -1.8492489    18.159974    40.033989 
137148000    273.23202    300.05065     270.5495    -3.204236  -0.65572504    29.501151    40.044413 
137152000    275.16384     323.2598    260.89653   -3.2200456    0.8471518    62.363268    40.039549 
137156000    278.99958    340.49373    265.92775   -4.2580878    1.0074372    74.565981    40.044171 
137160000     285.0796    321.91787    282.46668   -4.3231976   0.44528504    39.451193    40.042976 
137164000     289.1541    339.32483    272.02448   -4.7610851   -0.8529177     67.30035     40.04705 
137168000    284.02553     317.9114    286.32562   -5.1448263  -0.72347456    31.585778    40.044796 
137172000    288.12049    327.39875    290.36033    -4.277183  -0.15427196    37.038421    40.055193 
137176000    272.50093    299.19589    292.14778   -2.2911209   0.34085085    7.0481181    40.048903 
137180000    278.26862    314.17621    298.21549   -2.4119545  -0.24474282    15.960719    40.051449 
137184000    270.37391    295.29357     293.2991    -1.305896   0.57204188    1.9944765    40.055394 
137188000    285.96644    366.82498    291.11995   -5.5510873  0.063595093    75.705035    40.065878 
137192000    265.50184    314.00253    264.03884    -2.455464     1.957208    49.963689    40.072066 
137196000    281.82139    342.95517    268.83745   -5.3390542   0.81100384    74.117723    40.072997 
137200000    266.01596    318.17097    257.61352   -3.3935897    1.9601534    60.557452    40.074042 
137204000    275.93964    305.04679     302.1388   -1.8795931  -0.73522507      2.90799    40.058804 
137208000      280.838    307.49927    290.55906    -1.795224   -2.1826193    16.940213    40.060761 
137212000    280.06499     338.8795    288.00867   -3.1613443  0.074226929     50.87083    40.072082 
137216000    275.60014    312.57449    287.08596   -2.9015616  -0.17329095    25.488526    40.071541 
137220000      271.584    311.85624     282.2503   -2.7177493    0.5708936    29.605945    40.072375 
137224000    280.29983    331.25571    272.12474   -4.1802668    1.4336612    59.130965    40.073941 
137228000    279.82686    318.01148    296.24603   -2.7371647  -0.97815302    21.765443    40.067878 
137232000    277.86672    329.91965    282.31917   -3.3895463 -0.0057569018    47.600476    40.078229 
137236000    283.49825    333.77233    291.41266   -4.3833495  -0.65847869    42.359669    40.078938 
137240000    275.10531    331.76468    277.36063   -4.9811268    1.0399739    54.404057    40.087394 
137244000    270.51197    313.02035    258.19123   -3.5305005    2.4211717    54.829124    40.087561 
137248000    275.73728    325.33161    274.86337   -4.0887026    1.1482974    50.468235    40.088505 
137252000    280.56515     319.6895    268.27002   -4.1312833    1.6258465    51.419486    40.099729 
137256000    279.59326    319.04293    313.31498   -4.2654666   0.38698084    5.7279503    40.106166 
137260000    277.51216    313.56388    285.64832    -2.765961    1.9633661    27.915561    40.108047 
137264000    274.26692    340.78103    271.75479   -5.1843414      1.46286     69.02624    40.110867 
137268000    284.57271    335.74739    292.36054    -4.639348  -0.54286098    43.386844    40.109709 
137272000    269.74643    306.05323    278.65709   -2.9510387    1.0467055    27.396133     40.10565 
137276000     264.6461    311.62263    267.12964   -2.7761448    1.5412476    44.492988     40.10753 
137280000    271.07947    303.72893    266.82324   -3.0964093    1.3192885    36.905694    40.108331 
137284000     278.1777    321.60288    272.18806   -3.5324718   0.56890186    49.414822    40.103327 
137288000    277.72814    323.60262    283.18927   -4.2162966   0.42559002    40.413348    40.103335 
137292000     273.7085    323.41538    268.69976   -4.8591279   0.37491515    54.715623    40.110426 
137296000    262.92502     299.2225    265.40476   -3.7158034   0.82953552    33.817739    40.104542 
137300000    265.79877    309.98552    271.85556   -4.2016813    1.5861071    38.129953    40.095224 
137304000    271.48051    302.04081    285.35571   -4.0045223   -0.1663531    16.685104    40.092711 
137308000    269.20622    303.98292    267.71452   -4.0140194    1.4420738    36.268405    40.094368 
137312000    278.06474    341.15215     262.2694   -4.5728339    2.3127517     78.88275    40.094444 
137316000    282.55745    335.22748    274.78076   -4.4592785    1.4286055    60.446725    40.093708 
137320000      269.999    331.49189    262.89177   -4.0715443    1.6622903    68.600124     40.09192 
137324000    279.13297    321.62212    276.39382   -3.7080915   0.99624925    45.228304    40.092516 
137328000    279.27528    346.44545    274.16978   -5.1887942     1.226006     72.27567    40.079946 
137332000     280.5121    328.78399     295.0785   -3.5636543  -0.10331457    33.705486    40.077772 
137336000    272.84149    302.91804    289.83086   -1.8782211    0.7186399    13.087182     40.08482 
137340000    268.64481    330.28692    256.29323    -1.995441     2.027008    73.993693    40.088577 
137344000    285.75928    347.46818    295.62362   -4.4425326   0.14156657    51.844553    40.084459 
137348000    274.77981    312.42921    284.55269   -3.3844347   0.54081144    27.876514    40.080096 
137352000    272.87086    327.60272    268.79797   -4.2414214    1.8444285    58.804754    40.076363 
137356000     279.8818    318.77229    278.98018   -4.1371239    2.0238431    39.792103    40.081312 
137360000    278.12827    357.59898    269.96854   -6.2243715    2.1907717    87.630444    40.085124 
137364000    272.08502    324.83817    270.81024   -3.5084312    2.2342128    54.027923    40.078713 
137368000    276.65011    313.63644    288.30913   -5.3653152   0.94501287    25.327307    40.081255 
137372000    268.23192    300.60957    268.77471   -3.8362252    2.3686764    31.834864    40.074953 
137376000    279.34719     321.8628    296.74166   -4.8139427   0.94107734    25.121145    40.071122 
137380000    276.01164    323.65422    262.93145   -5.8265647    2.0550027    60.722777    40.083709 
137384000    275.56122    316.03426    280.36597   -4.3455169   0.46285376    35.668288    40.081458 
137388000     282.3445    339.03948    266.86321    -5.981036    1.7979342    72.176272    40.085696 
137392000    278.61337    329.05022    272.31876   -4.7242386    2.0252239    56.731452    40.088009 
[...]
150512000    260.15823    310.07404    270.39625   -26.658197    26.212545    39.677794    40.031155 
150516000    278.53107    316.05686    275.22865   -27.150221    27.402817    40.828208    40.029668 
150520000    276.19905    305.09027    299.02855   -28.861899    25.243239    6.0617277    40.028981 
150524000      266.753    316.26116    261.58314   -28.088395    26.375985    54.678021    40.029163 
150528000    278.84988    322.21675    275.88268   -28.470602    26.156641    46.334062     40.03052 
150532000    272.15896      336.805    263.20516   -28.891418    26.068801    73.599845    40.030195 
150536000    288.62452    339.03297    310.65527   -29.213803    24.693178    28.377701    40.031874 
150540000    280.03148    316.51501    284.73822   -27.428408    25.970916    31.776788    40.030776 
150544000    272.59623    321.87137    264.27497   -28.145079    26.773493    57.596402    40.031849 
150548000     278.1261    315.85482    281.99691   -28.486551    25.830436    33.857918    40.031625 
150552000    273.36527    294.24114    281.97175   -28.015097    25.337832    12.269385    40.031414 
150556000    276.13583    310.16678    291.14754   -28.119527     25.58692    19.019249    40.032039 
150560000    275.16826    316.80975    308.92297   -28.511198    25.020955    7.8867799    40.032255 
150564000    280.11324    341.88193    281.08799   -29.170977    26.158095    60.793934    40.032015 
150568000    276.50483    319.98035    290.18345   -28.002935    26.309057    29.796902    40.032229 
150572000    272.63349    327.97456     287.2713   -28.865007    24.897341    40.703257    40.032439 
150576000    275.26076    298.22976    273.33825   -26.592247      25.9975    24.891509    40.032706 
150580000    276.65662    329.94919    270.29414   -28.216558     25.98543    59.655047    40.031642 
150584000    278.85408    325.64373    262.20585   -28.552081    26.645147    63.437888     40.03152 
150588000    270.51827    300.21769    279.05237   -28.097743     25.49528    21.165321     40.03161 
150592000     276.3521    320.13858    266.63523   -28.208539    25.888673     53.50335    40.032976 
150596000    280.79741    337.79714    282.42014   -28.892243    25.536595       55.377    40.032982 
150600000    285.63964    324.63378    298.29482   -28.407609      25.0754     26.33896    40.032466 
150604000    276.78065    326.92758    275.55264   -27.770401    25.412176    51.374943    40.033227 
150608000    268.81346    310.91502    273.16947   -27.876822     26.08261    37.745547    40.034179 
150612000    271.30022    299.79466     268.1902   -27.243349    25.988448     31.60446    40.034291 
150616000    278.30128    325.35078     271.9855   -28.651958    26.492138    53.365277     40.03512 
150620000     277.6218    313.87569    281.17445   -28.099778    25.468626    32.701242    40.035596 
150624000    280.74357    340.87507    284.05929    -29.65212    25.310938    56.815779    40.035421 
150628000    279.62852    316.82087    282.10335    -28.52153    25.402168    34.717516    40.035185 
150632000    281.27043    316.74973    268.92763   -28.649729    26.785782    47.822103    40.034472 
150636000    264.63806    303.65356    266.19636   -28.916642    27.114425    37.457198    40.034989 
150640000    278.28938    318.19197    268.75943      -28.922    25.618591    49.432533    40.035311 
150644000    283.14794    324.33143    277.28932   -28.949582    24.234528    47.042117    40.035919 
150648000    278.29174    331.96822      267.124   -29.351495    24.753078    64.844227    40.037129 
150652000    273.52315    314.47248    272.54318   -27.889641    26.097477    41.929306    40.037243 
150656000    279.52033    320.55683    288.56856   -27.955752     25.04116    31.988267     40.03712 
150660000    280.12401    306.89254    301.19894   -27.841177    24.371461    5.6936023    40.036284 
150664000      279.826    325.37468    267.98419   -28.740772    27.157229    57.390491    40.036234 
150668000    279.04097    317.13207    281.02785    -28.72929    26.798756    36.104213    40.035453 
150672000    281.10954    328.23747    287.08924   -29.262826    27.067755    41.148231    40.035732 
150676000    285.22733    311.26065    281.62915   -28.700578    26.293083    29.631501    40.036706 
150680000    271.10836    322.62571     271.6842   -27.736435    26.981181    50.941507    40.036504 
150684000    276.98829     323.8329    282.73314   -27.437377    25.986119    41.099759    40.037014 
150688000    272.27754    308.70075     285.6745   -27.260728    25.840933    23.026251    40.037972 
150692000    274.10067    329.16156    280.76286   -29.176405    25.257407    48.398699    40.037394 
150696000     272.6655    327.69769    280.52687   -28.803194    26.272412     47.17082    40.037275 
150700000    275.83125    322.93904     285.4766   -28.044209    25.948057    37.462447    40.037645 
150704000     274.4257    312.95016    270.33315   -27.604748    26.049335    42.617004    40.036771 
150708000    273.82588    324.04799    288.61936   -28.397626    24.690738    35.428625    40.037333 
150712000     262.9039    300.75855    256.66079   -27.942771    27.129755     44.09776    40.037548 
150716000    273.21974    307.97694    288.01487   -28.189509    26.309146    19.962074    40.038614 
150720000    272.44258    327.69238    268.89502   -28.589046    27.639078    58.797354    40.038637 
150724000    288.71452    358.73843    288.73946   -30.152301    27.121692    69.998969    40.039059 
150728000    279.05911    327.46541    275.31639   -28.476034    28.102343    52.149019     40.03801 
150732000     267.8942    339.52053    273.32408   -29.423473    27.466072    66.196452     40.03768 
150736000    283.15447    320.14348    297.57153    -27.90454    25.816448    22.571959    40.036952 
150740000    273.93211    316.75376    283.20534   -27.670988    25.564361    33.548416    40.036586 
150744000    275.89773    317.12737    306.61259   -28.670045    25.827549    10.514781    40.036492 
150748000    271.95361     319.5879    288.05331   -28.518495     26.43637    31.534587    40.037876 
150752000    277.41696    331.88189    278.02668   -28.148047    26.283769     53.85521     40.03789 
150756000    272.00204    310.11357    281.36766    -27.78782    25.198718    28.745916    40.038158 
150760000    272.48589    334.14165    264.45632   -28.904522    27.407062    69.685333    40.037716 
150764000    271.60313     318.5276    280.51066   -27.483489    25.853916    38.016936    40.038072 
150768000    275.72459    309.29849    303.85814   -27.439888    25.605933     5.440344      40.0381 
150772000    266.47861    285.74747    274.48252   -26.602164    27.038432    11.264947    40.039106 
150776000    272.22814    326.27225     277.8961   -28.784853     27.72729    48.376156     40.03892 
150780000    280.32859     330.3378    288.42457   -30.113924    26.741146    41.913231    40.039904 
150784000    270.86041    313.16306    285.72561   -26.850092    27.480511    27.437451     40.04028 
150788000    277.66674    304.69622    308.29912   -26.745592    25.599918   -3.6028967    40.039805 
150792000    271.49474    319.79208    267.37025   -27.729543    27.187268    52.421827    40.038282 
150796000    270.81335    300.80864    282.93581   -27.799643     26.64141    17.872832    40.036844 
150800000    282.17594    331.45542    311.90994   -30.252566    25.711161    19.545485    40.036614 
150804000    267.60297    307.82028    270.04883   -27.022619    26.833416    37.771443    40.035806 
150808000    269.33549    324.15052    275.35392   -27.152545    26.777979    48.796593    40.035676 
150812000    263.26476    308.31543    252.70325   -25.537916    28.510633    55.612181    40.035813 
150816000    262.32298    291.16899    287.78235   -24.945423    25.732452    3.3866464    40.034387 
150820000    266.60013    301.78078    293.21565   -24.987239    24.850607    8.5651292    40.033116 
150824000    263.20143    308.75866    266.13559   -26.347546    28.028857    42.623076    40.032508 
150828000     275.0072    322.58822    296.25717   -26.858637    25.821716    26.331051    40.032006 
150832000    267.97234    331.33513    278.21804    -28.36783    27.935268     53.11709     40.03187 
150836000    283.01299    339.61353    292.88362   -28.475199    26.922402    46.729901    40.031995 
150840000    285.76074    352.95763    287.89235   -29.663595    26.276817    65.065289     40.03281 
150844000    269.94082    314.83235    273.09202   -28.738576    27.373974    41.740327    40.032768 
150848000    277.29584    326.91915    290.26362   -28.377893    25.338889     36.65553    40.033189 
150852000     276.5289    327.97955    296.51727    -28.64813    25.333344    31.462284    40.032786 
150856000    277.29287    331.63758    280.95006    -28.40573    27.406704    50.687517     40.03314 
150860000    262.66319    305.81038    269.05352   -27.571207    28.446444    36.756861    40.033692 
150864000    277.01192    335.41288    277.15823   -29.197351    27.093204    58.254648    40.034794 
150868000    277.85139    336.90319    289.03122   -30.143003    26.469403    47.871975    40.036399 
150872000    263.23842    334.32936    263.20292   -30.181213    27.616498    71.126441    40.036343 
150876000    274.75111    339.26741    281.96462   -28.657872    26.690904    57.302785    40.036338 
150880000    270.70342    321.88684    277.61966   -28.540218    27.375991    44.267185      40.0359 
150884000    268.33513    307.15749      290.462   -28.622667    26.105511    16.695492     40.03664 
150888000    268.69322     329.1714     266.5555   -27.598756    27.971154    62.615897    40.037527 
150892000     276.7401    337.27809    295.88235   -28.142376    26.513078    41.395739    40.037252 
150896000     276.4663    328.51776    291.94808   -27.421664     26.37627    36.569683    40.036815 
150900000    275.79016    333.53495    273.25632   -28.105358    28.343003    60.278624    40.036914 
150904000    275.86193    333.27045    270.37631   -27.120222    27.425408    62.894147    40.036038 
150908000    277.05773    321.54075    273.48344   -28.938193    27.667098    48.057311    40.035757 
150912000    279.24343    330.85006    293.62446   -27.356069    25.580324    37.225598    40.034704 
150916000    270.36042    322.09557    273.63375   -27.732062    27.773129    48.461828    40.034053 
150920000    267.57112    298.37819    301.04476   -25.486572      25.9312   -2.6665691    40.033056 
150924000    268.44686    321.33345    283.63188   -27.539571    26.715998     37.70157    40.033758 
150928000    281.72657    332.01907    290.03604   -29.171184    26.441973    41.983039    40.033987 
150932000    280.05695     341.4266    292.11393    -29.84114    26.021374    49.312664    40.033308 
150936000    269.52897    301.07581    279.88647   -28.369804    27.083158     21.18934    40.033891 
150940000    269.88513    316.47156    281.19533   -28.387663    28.142658    35.276234    40.034419 
150944000    266.81215    296.47689    272.16784   -27.088441    27.162172    24.309056    40.034158 
150948000    279.83573     352.2024    268.56992   -28.031541    27.467255    83.632472    40.034582 
150952000    269.29719    299.15019    277.00715   -27.371824     27.20433    22.143041    40.035163 
150956000    270.54697    326.08343    271.98679   -28.327915    26.793516    54.096639    40.036444 
150960000    270.26766    312.05448    294.77318   -27.064232    26.054647    17.281306    40.035932 
150964000    275.32365    336.51962    295.38381   -29.875486    26.756916    41.135806    40.035836 
150968000    267.21136    321.46181     270.7202   -28.401954     27.91324    50.741606    40.036517 
150972000    279.31737    333.62556    286.10835   -28.680651     26.95794    47.517207    40.036147 
150976000    262.89292    332.21367    266.01065    -29.28161    27.271473    66.203025    40.036792 
150980000    275.65273    317.94562    287.10842   -27.669088    26.893494    30.837194    40.036762 
150984000    276.54324    318.30153    291.71048   -27.247835    27.735283    26.591043    40.036263 
150988000     273.3934    366.63511    266.71381   -30.311798    27.890584    99.921305    40.036328 
150992000    266.75744    328.58989    277.84242   -27.505661    27.885895    50.747472    40.035929 
150996000    265.33536    324.63673    297.77752   -26.687024    26.387971    26.859214    40.035002 
151000000    269.32042    313.88075    296.12458   -25.844079    27.045081    17.756173    40.033646 
151004000    263.67014    340.21106    258.18013   -27.670473    28.999711    82.030933    40.034566 
151008000    269.64636    334.87419    281.96298   -26.676488    28.280786    52.911208    40.035237 
151012000    268.66632    331.69098    288.34824   -27.717317    27.533367    43.342739    40.036494 
151016000    275.20537    356.14753    282.35364   -28.236263    28.939514    73.793897    40.039179 
151020000    275.32387    337.50322    293.66324   -27.388207    29.075072    43.839978    40.040856 
151024000    274.85128    353.11087    297.09806   -27.774599    28.185696     56.01281    40.041511 
151028000    254.18852    297.43004     284.3594   -25.325345    27.583926    13.070641    40.041116 
151032000    266.32652    346.48577    261.72356   -27.311985    28.568247    84.762217    40.041479 
151036000    265.22629    324.70451     279.2292   -27.227165    28.322765    45.475304    40.041063 
151040000    266.01328    321.04714    293.65565   -27.641826    28.141684    27.391487    40.041457 
151044000    268.97441    314.09474    295.85686   -26.812956    27.846686    18.237883    40.042517 
151048000    250.02903    283.87557    265.10309   -25.042161    29.567455    18.772477    40.043366 
151052000    264.57257    318.52144    268.13865   -26.270224    29.815458    50.382793    40.042743 
151056000    267.71567     326.5419    286.03523   -26.312068    28.618152    40.506674    40.041826 
151060000    262.68694    324.69959    286.52474   -27.132248    27.401102    38.174849    40.041985 
151064000    262.08824    317.07472    282.72571   -26.533399    28.077207    34.349014    40.042549 
151068000    265.25517    297.58192    302.14559   -25.832711    27.106133   -4.5636752    40.041678 
151072000    264.16413     336.6028    282.82001   -27.488863    28.239766    53.782792    40.040818 
151076000    267.14163    325.00096    284.90237   -27.434771    29.252773    40.098597    40.041561 
151080000    267.09533    316.44604    278.46843   -27.366183    29.780892    37.977605    40.040703 
151084000    267.87852    317.18096    280.85787   -25.949728    27.776134    36.323093    40.040633 
151088000    257.22752    304.73473    273.86362   -24.539649    28.068184    30.871107    40.041181 
151092000    268.48016    346.01996    254.74898   -28.203943    29.018239    91.270973    40.041067 
151096000    266.50192    328.81648    265.22322   -27.480877    29.026236    63.593255    40.042119 
151100000    260.29754    323.48835    264.67452   -26.383701    28.538959    58.813838    40.043293 
151104000    263.74656    312.56778    282.90484   -24.787923     26.95892    29.662939    40.043348 
151108000    269.72433    323.69113    292.27992    -24.93127    26.761412    31.411219    40.043163 
151112000    267.43051    332.64849    273.00238   -25.611345    28.379459     59.64611     40.04365 
151116000    273.49419    358.61144    274.91341   -27.494459     28.38544     83.69803    40.044989 
151120000     266.3597    317.17458    279.46411   -25.928082    28.278695    37.710472    40.045153 
151124000    268.61091    332.21842    280.19011   -27.190414    27.524118    52.028313    40.044931 
151128000    268.73727    315.10339    282.61899   -26.485929     27.99405    32.484403    40.044467 
151132000    268.19782    349.57721    275.40534   -28.241265    28.208151    74.171868    40.045058 
151136000    261.80897    331.84533    284.18649   -27.223287    28.568466    47.658841    40.046774 
151140000    269.23699    346.75177    280.49199   -28.708931    28.844665    66.259786    40.047788 
151144000     264.2512     317.2794    279.06136   -27.605154    28.924916    38.218043    40.046756 
151148000    262.52741    315.00281    289.12644   -26.582659    28.431763    25.876368    40.047548 
151152000    271.79855    327.28338     289.1563   -28.409455    27.737128    38.127077    40.048482 
151156000    269.07845    318.93958    285.54841   -28.817259    28.361178    33.391167    40.047328 
151160000    261.92304    308.79234    274.13609   -27.672253    29.416064     34.65625    40.047911 
151164000    265.37155    322.11215    276.15528   -27.179174    29.424198    45.956863    40.047223 
151168000    267.62504     312.2833    277.69288   -27.622326    29.193433    34.590422    40.045842 
151172000    262.10172    309.96461     268.9478   -26.044892    29.399628    41.016809    40.045533 
151176000    267.34573    330.73908    265.72275   -27.650458     29.19373    65.016329    40.045794 
151180000    266.59352    335.30688    269.93193   -28.722787    29.013907    65.374947    40.045649 
151184000    267.26428    311.64911    288.23388   -27.030609    29.249993    23.415229    40.044722 
151188000    262.66471    314.27889    273.54708   -27.653117    28.705082    40.731809    40.045256 
151192000    270.02723    326.94338    281.44844   -26.231283    27.687284    45.494938    40.046305 
151196000    274.35093    313.01442    321.02434   -25.383729    26.182628   -8.0099235    40.046557 
151200000    258.87688    304.14894    268.97563   -26.203017    28.897047    35.173315    40.047507 
151201000    265.61147    317.37232    298.78283   -27.415165    27.654317    18.589495    40.047507 
Loop time of 21204.9 on 4 procs for 16000000 steps with 1498 atoms

Performance: 16.298 ns/day, 1.473 hours/ns, 754.541 timesteps/s
99.7% CPU use with 4 MPI tasks x no OpenMP threads

MPI task timing breakdown:
Section |  min time  |  avg time  |  max time  |%varavg| %total
---------------------------------------------------------------
Pair    | 10588      | 14660      | 18815      |3303.6 | 69.14
Bond    | 65.015     | 102.2      | 137.44     | 347.6 |  0.48
Neigh   | 115.17     | 115.23     | 115.26     |   0.3 |  0.54
Comm    | 274.16     | 4208.9     | 8198.2     |6039.4 | 19.85
Output  | 7.6364     | 7.6631     | 7.7419     |   1.6 |  0.04
Modify  | 1125       | 1618.5     | 2139.8     | 952.5 |  7.63
Other   |            | 492.3      |            |       |  2.32

Nlocal:    374.5 ave 714 max 35 min
Histogram: 2 0 0 0 0 0 0 0 0 2
Nghost:    2381.75 ave 4283 max 496 min
Histogram: 2 0 0 0 0 0 0 0 0 2
Neighs:    13020.8 ave 25776 max 315 min
Histogram: 2 0 0 0 0 0 0 0 0 2

Total # of neighbors = 52083
Ave neighs/atom = 34.7684
Ave special neighs/atom = 0.518024
Neighbor list builds = 28212
Dangerous builds = 0

write_restart FINALCONFIG
WARNING: Using a manybody potential with bonds/angles/dihedrals and special_bond exclusions (../pair.cpp:218)
Neighbor list info ...
  update every 1 steps, delay 0 steps, check yes
  max neighbors/atom: 2000, page size: 100000
  master list distance cutoff = 16
  ghost atom cutoff = 16
  binsize = 8, bins = 3 3 23
  4 neighbor lists, perpetual/occasional/extra = 4 0 0
  (1) pair lj/cut, perpetual, skip from (4)
      attributes: half, newton on
      pair build: skip
      stencil: none
      bin: none
  (2) pair morse, perpetual, skip from (4)
      attributes: half, newton on
      pair build: skip
      stencil: none
      bin: none
  (3) pair eam, perpetual, skip from (4)
      attributes: half, newton on
      pair build: skip
      stencil: none
      bin: none
  (4) neighbor class addition, perpetual
      attributes: half, newton on
      pair build: half/bin/newton
      stencil: half/bin/3d/newton
      bin: standard

#and everyone lived happily ever after, THE END
Total wall time: 6:11:05
