LAMMPS (16 Mar 2018)
#lammps script for united atom polymer simulation (full-scale run)

# 1. INITIALIZATION
#allows pair, bond, bending and dihedral interactions
atom_style molecular

  # periodic (video game) boundaries in all cartesian directions
boundary p p s

  # uses real units (instead of units based on pair potential parameters).  List of units used in manual
units metal

###########
# 2. ATOM DEFINITION
##########

   ##
   # Read in data from starting configuration file
   ##

#read_data lammps-AT-config

 #use to restart
read_restart RESTART
  orthogonal box = (0 0 -29.1214) to (20 20 152.979)
  1 by 1 by 4 MPI processor grid
  1498 atoms
  197 bonds
  96 angles
  95 dihedrals
  2 = max # of 1-2 neighbors
  2 = max # of 1-3 neighbors
  4 = max # of 1-4 neighbors
  6 = max # of special neighbors

   ##
   # Specify the nature of the bond interactions
   ##

bond_style harmonic
bond_coeff 1 19.51 1.54
bond_coeff 2 22.45 1.82
bond_coeff 3 10000.0 2.0
special_bonds lj 0.0 0.0 0.0 angle no dihedral no

angle_style harmonic
angle_coeff 1 2.683 114.00
angle_coeff 2 2.683 114.40

dihedral_style opls
dihedral_coeff * 0.06071 -0.011743 0.1363628 0.0

mass  1   14.00
mass  2   32.06
mass  3  196.97
mass  4  196.97


pair_style hybrid lj/cut 14.0 morse 14.0 eam
pair_coeff 1 1 lj/cut 0.00395 3.95 14.0
pair_coeff 2 2 lj/cut 0.01594 3.62 14.0
pair_coeff 3 3 eam Au_u3.eam
Reading potential file Au_u3.eam with DATE: 2007-06-11
pair_coeff 4 4 eam Au_u3.eam
pair_coeff 1 2 lj/cut 0.0000 3.785 14.0
pair_coeff 1 3 lj/cut 0.00258 3.44 14.0
pair_coeff 1 4 lj/cut 0.00 3.44 14.0
pair_coeff 2 3 morse 0.879 1.47 2.7 14.0
pair_coeff 2 4 morse 0.000 1.47 2.7 14.0
pair_coeff 3 4 lj/cut 0.00 2.934 14.0


group freeze type 4
100 atoms in group freeze
fix startend freeze setforce 0.0 0.0 0.0



################
# 3.  Simulation Settings
###############

neighbor        2.0 bin
neigh_modify    every 1 delay 0 check yes



# Define some variables
variable Lx          equal xhi-xlo   # Ang
variable Ly          equal yhi-ylo   # Ang
variable Lz          equal zhi-zlo   # Ang

variable dz          equal ${Lz}/30  # Ang
variable dz          equal 182.100820164033/30  

variable zzlo        equal zlo  # Ang
variable zzhi        equal zhi  # Ang
variable vol         equal ${Lx}*${Ly}*${Lz}  # Ang^3
variable vol         equal 20*${Ly}*${Lz}  
variable vol         equal 20*20*${Lz}  
variable vol         equal 20*20*182.100820164033  
variable TEMP        equal 300.00 # K
variable TThi        equal 320.00 # K
variable TTlo        equal 280.00 # K
variable dt          equal 0.00025 # ps

timestep     ${dt}
timestep     0.00025

variable zlo1      equal -26.0
variable zlo2      equal -11.0
variable zhi1      equal 135.0
variable zhi2      equal 150.0

# heat layers

region          hot  block  INF INF INF INF ${zlo1} ${zlo2}
region          hot  block  INF INF INF INF -26 ${zlo2}
region          hot  block  INF INF INF INF -26 -11
region          cold block INF INF INF INF ${zhi1} ${zhi2}
region          cold block INF INF INF INF 135 ${zhi2}
region          cold block INF INF INF INF 135 150
compute         Thot all temp/region hot
compute         Tcold all temp/region cold


# Second Equilibration
fix             1 all nve
fix             hot all langevin ${TThi} ${TThi}  0.005 59804  tally yes
fix             hot all langevin 320 ${TThi}  0.005 59804  tally yes
fix             hot all langevin 320 320  0.005 59804  tally yes
fix             cold all langevin ${TTlo} ${TTlo} 0.005 287859 tally yes
fix             cold all langevin 280 ${TTlo} 0.005 287859 tally yes
fix             cold all langevin 280 280 0.005 287859 tally yes
fix_modify      hot temp Thot
fix_modify      cold temp Tcold

variable        tdiff equal c_Thot-c_Tcold
thermo_style    custom step c_Thot c_Tcold f_hot f_cold v_tdiff
thermo            4000
run             800000
WARNING: Using a manybody potential with bonds/angles/dihedrals and special_bond exclusions (../pair.cpp:218)
Unused restart file peratom fix info:
  fix style: STORE, fix ID: layers_COMPUTE_STORE
Neighbor list info ...
  update every 1 steps, delay 0 steps, check yes
  max neighbors/atom: 2000, page size: 100000
  master list distance cutoff = 16
  ghost atom cutoff = 16
  binsize = 8, bins = 3 3 23
  4 neighbor lists, perpetual/occasional/extra = 4 0 0
  (1) pair lj/cut, perpetual, skip from (4)
      attributes: half, newton on
      pair build: skip
      stencil: none
      bin: none
  (2) pair morse, perpetual, skip from (4)
      attributes: half, newton on
      pair build: skip
      stencil: none
      bin: none
  (3) pair eam, perpetual, skip from (4)
      attributes: half, newton on
      pair build: skip
      stencil: none
      bin: none
  (4) neighbor class addition, perpetual
      attributes: half, newton on
      pair build: half/bin/newton
      stencil: half/bin/3d/newton
      bin: standard
Per MPI rank memory allocation (min/avg/max) = 10.93 | 11.62 | 12.31 Mbytes
Step c_Thot c_Tcold f_hot f_cold v_tdiff 
168001000    324.81012    276.46661           -0           -0    48.343515 
168004000     341.0743    259.42627   -1.6731612   0.47478383    81.648025 
168008000    335.76992    268.54491   -1.2630572  -0.14722505     67.22501 
168012000    326.67138    283.02608  -0.90815544   -1.3737101    43.645304 
168016000    316.42571    278.87324  -0.11057445    -1.579855    37.552465 
168020000    300.29436    294.04904   0.96535181  -0.76402409    6.2453207 
168024000     326.1775    297.80919   -0.5659543   -1.8668292    28.368312 
168028000    328.21869    300.29288   -1.1126043   -1.2343125    27.925816 
168032000    331.99091    278.33449   -2.0642063  -0.38287472    53.656424 
168036000    348.71304    262.21222   -1.3284778  -0.14578207    86.500823 
168040000    328.27109    263.68208    -2.130516   0.66015481     64.58901 
168044000    324.61389    271.06932    -1.380565   0.20932967     53.54457 
168048000     339.0459    276.48679   -1.7026257 -0.048010538    62.559107 
168052000    325.27542    265.48593   -1.7801905  -0.55882157    59.789497 
168056000    304.98514    283.71803   -0.4415984   -0.9136467    21.267115 
168060000    317.48799    277.18099   -1.4294076  -0.96126094    40.307005 
168064000    325.21572     285.2947   -2.3494192   -1.0795832    39.921021 
168068000    307.77447     286.0523   -2.1577624 -0.084971017    21.722164 
168072000    327.80575    292.59094    -2.758335    -0.896378    35.214808 
168076000    329.61744    279.11877   -1.0317799  -0.50920884    50.498675 
168080000    305.82678    285.11769   -0.3540975   -1.2569413    20.709097 
168084000    322.63634    301.68058  -0.92051391   -0.6421195    20.955754 
168088000    330.12648    265.53151   -2.4736301   0.67320347    64.594961 
168092000    316.00267    294.11805  -0.75569312  -0.24057119    21.884619 
168096000    316.83584    248.57673   -1.0046059     1.500382    68.259109 
168100000     327.0457    292.79852   -1.4515312  -0.11634889    34.247175 
168104000    311.91887    272.67453  -0.95497273   0.69980453    39.244338 
168108000    335.20544    285.77232 -0.068915339   0.05007337    49.433116 
168112000    320.29636     261.0857   -1.9409425    1.3665707    59.210662 
168116000    326.93036    291.05022   -3.0380893   -1.2126058    35.880139 
168120000    295.80813    283.51646  -0.62665066   -1.0854498    12.291672 
168124000    285.17387    275.49941   -0.1070935    0.6971866    9.6744583 
168128000    299.74126     283.9825   -1.3026922  -0.32526519    15.758764 
168132000    340.74941    261.66482    -2.859608    1.2314636    79.084589 
168136000    291.66911    308.57767  -0.24024375   -1.3933954   -16.908558 
168140000    309.55645    297.89515   0.38496002  -0.90017886    11.661297 
168144000    323.89908    276.53429    -1.406022   0.85395922    47.364786 
168148000    336.51055    274.10926   -2.1805666    1.7500832    62.401285 
168152000    301.72375    263.73164  -0.60377875    1.0898244    37.992113 
168156000    321.87934     281.4398   -1.4653041  -0.31569733    40.439533 
168160000    307.44326    286.62458  -0.30350125 -0.044969359    20.818678 
168164000    317.69924      304.189    -1.769955  -0.64794314    13.510239 
168168000    321.90642    299.91369   -2.2082916  -0.24821236    21.992722 
168172000    328.96427    272.71792   -2.3581655  0.053012359    56.246354 
168176000    312.02286    286.03974   -1.0546966    0.8635092    25.983122 
168180000    312.02737    289.67786   -0.7248518   -0.2284166    22.349509 
168184000    312.67337    287.92118  -0.99288793 0.0053187705    24.752186 
168188000    320.93819    296.22123   -2.5742048  -0.68557059    24.716954 
168192000     310.4381     284.6514   -2.3171719    1.6304527    25.786707 
168196000    320.25002    283.50428   -2.8073114  -0.11378768    36.745738 
168200000    292.99632    283.27051   -1.3275736   0.37023883      9.72581 
168204000    303.62218    295.87984  -0.19788138   -0.3505548    7.7423433 
168208000    333.46135    288.14492   -2.3350001  -0.68013709    45.316431 
168212000    327.22614    269.42469   -1.6698378    1.5068426    57.801448 
168216000    325.09851    283.73767   -1.7293004    1.1860693    41.360842 
168220000    301.37266    269.06468  -0.13667371   0.85030369    32.307975 
168224000    322.91877    285.36093   -1.1297378   0.62874189    37.557839 
168228000    294.71806    279.24106  -0.67389998   0.78628539    15.476996 
168232000     355.5568     265.2972   -2.7867119   0.82906449    90.259602 
168236000    324.43856    270.97865  -0.96188501   0.13117304     53.45991 
168240000    315.66967    268.51744  -0.12521691   0.74526097    47.152221 
168244000     311.5808    285.26177  -0.17162342 -0.048725871    26.319032 
168248000     325.4508    300.53232   -2.1426633  0.088550414    24.918476 
168252000    307.67678    294.43508   -1.7900662  -0.98768382    13.241693 
168256000     337.1622    289.17491    -2.258684  -0.27718566    47.987289 
168260000     344.5883    268.25946   -2.7695522   0.52085273    76.328843 
168264000    326.60316     273.4502   -1.6825996 0.0091858145    53.152961 
168268000     315.3616    301.87291   -1.7375682   -1.8752885    13.488685 
168272000    334.78681    268.98467   -2.2055943    0.5895013    65.802141 
168276000    315.88643     280.3642   -1.8486134   -1.2471228    35.522235 
168280000    335.87296    285.29591   -4.3238406  -0.12766731    50.577048 
168284000    324.43742    296.31545   -2.2866068  -0.25292886    28.121966 
168288000    330.87241    277.25471    -2.183137     1.104465    53.617693 
168292000     335.5892    271.22837   -2.1307546    1.1522923    64.360834 
168296000    321.69234     288.4173   -2.9451805   0.44555319    33.275043 
168300000    321.35382    293.73325    -1.138563   -1.1704032    27.620566 
168304000    315.68947    263.27982   -2.1451206   0.49823471    52.409644 
168308000    339.39992    260.75803   -2.9392998   0.81236281    78.641887 
168312000    311.32144    276.49593     -1.52047  -0.52570945    34.825507 
168316000    319.42268    299.98138   -1.0670563  -0.57726704    19.441306 
168320000    324.81464    271.69074   -1.5057199  -0.67413482    53.123898 
168324000    336.99629    280.66594   -2.0645834  -0.60119669    56.330343 
168328000    315.96831    268.82169   -1.5523668  -0.69586319    47.146621 
168332000    323.08908    258.25502   -2.0985544  -0.26530545    64.834055 
168336000    313.91869      281.884   -2.2563546   -1.0860304    32.034696 
168340000    303.58507    274.98893   -1.4789774    -1.038436    28.596144 
168344000    327.12442    288.47949    -2.466368   -1.0084495    38.644926 
168348000    340.13527    286.36484   -3.5346659   -1.0380249    53.770427 
168352000    320.82981    272.61875   -2.2841786 -0.068211652     48.21106 
168356000     332.2566     274.3407   -3.1501441  -0.70565279    57.915902 
168360000    317.12731    268.27511   -1.3177188  -0.50923689    48.852196 
168364000    338.38188    287.08371    -1.836235  -0.70445208    51.298165 
168368000    299.83789     292.5641   -0.4151244 -0.025941957     7.273788 
168372000    317.48265    289.77169    -1.636806   -1.2461209    27.710962 
168376000    283.05333    290.03785  -0.47058396   -1.0160777   -6.9845219 
168380000     308.8468    257.71799   -1.6996056 -0.064507016    51.128804 
168384000    317.33029    277.47976   -2.2875553  -0.80466777     39.85053 
168388000    333.91614    279.80985   -3.0837506  -0.79577602    54.106284 
168392000    308.08583     281.5653   -1.2784328  -0.14099476    26.520529 
168396000    336.25515    270.29973   -3.4635533   0.14592042    65.955414 
168400000    293.51742    259.95239   -1.6936683    1.4571265    33.565031 
168404000    317.84437     274.4697    -2.672046  -0.47720729     43.37467 
168408000    319.78203    298.16243   -3.5562758   -1.1884743    21.619599 
168412000    303.62149    293.68218   -1.9979922   -1.5055959     9.939309 
168416000    331.06857    288.37221    -2.257102  -0.31242198    42.696365 
168420000    331.26845    275.89078   -3.2070715  -0.83686978     55.37767 
168424000    352.19024    295.66217   -3.7689502   -2.1645244    56.528063 
168428000    321.47557    293.02017   -2.2312569   -1.5528232    28.455406 
168432000    296.10148    307.62535  -0.42362075  -0.90985457   -11.523871 
168436000    312.29872    277.45349  -0.69918159  -0.54868186    34.845238 
168440000    306.21234    281.06399  -0.81342293   -0.6940193    25.148347 
168444000    311.90597    282.75407   -3.2598311   -1.4166019    29.151901 
168448000    319.28861    281.96498   -2.7395746    -1.178292     37.32363 
168452000    286.47626    290.08117  -0.35514141   -1.8601934   -3.6049125 
168456000    323.26388     278.8214    -2.410028   -1.0898219    44.442485 
168460000    317.84776    288.25888   -2.5860372   -1.2359358    29.588878 
168464000    331.72225    279.25833   -2.6018392   -1.1603163    52.463918 
168468000     307.1813    273.35831   -2.0878868   0.51937104    33.822988 
168472000    311.67392     289.7974   -2.8991294  -0.65542478    21.876527 
168476000    305.64805    281.50689   -2.5517075   0.21634101    24.141163 
168480000    307.29705    259.20719   -2.0921894 -0.093402037    48.089854 
168484000    354.50337    290.67602   -4.8144801  -0.56442983    63.827347 
168488000    309.39971    260.97425   -1.2269483  -0.71283865    48.425461 
168492000    332.43906    280.87569   -2.0886655   -1.5205161    51.563372 
168496000    322.86589      273.628   -2.6113469  -0.38340688     49.23789 
168500000    344.99963    284.61539   -4.0668447   -1.4902002    60.384234 
168504000    301.45533      282.471   -1.5588053   -0.7311799    18.984327 
168508000    332.94212    298.19222   -3.7013802    -1.431949    34.749903 
168512000    315.51657     308.7477   -3.6951772   -1.4810251    6.7688684 
168516000      313.124    271.52084   -2.3300535  -0.38691226    41.603165 
168520000    334.75129    272.61463   -5.0000684  -0.82172428    62.136661 
168524000    336.97673    308.65388   -4.9379434   -2.8169968    28.322851 
168528000    318.76378    279.68392   -4.4847001  -0.57309802     39.07986 
168532000    334.20437    270.49891   -3.7523761   -1.0543627    63.705457 
168536000     302.0858    295.61998   -3.1302326   -1.3237131    6.4658209 
168540000    349.92237    275.29714   -4.7710941   0.63728444    74.625228 
168544000    334.11024    266.79851   -4.5428802   0.26369591     67.31173 
168548000      310.823    280.97206   -3.1284878  -0.55947507    29.850939 
168552000    318.98442    273.22314   -3.7081717   -1.0351074    45.761278 
168556000    304.07141    290.52053   -2.2998256   -1.2567728     13.55088 
168560000    320.14076     267.7757   -3.8130549  -0.30910673     52.36506 
168564000     311.3845    267.03165   -2.0986373  -0.41396811    44.352849 
168568000    296.26285    280.13214   -2.8644464  -0.43816036    16.130712 
168572000    327.37084    276.22146   -4.8175166   0.22952901    51.149378 
168576000    302.05164    292.36587   -2.9142975  -0.58272887    9.6857663 
168580000     330.4854     301.0897    -4.172905   -2.2394412    29.395697 
168584000    321.94823    284.19992   -3.7385808   0.30504462     37.74831 
168588000    311.32496    275.09048   -3.4495679  0.040581251     36.23448 
168592000    305.05197    298.36817    -3.011769   -1.2403123    6.6837954 
168596000    333.47972    273.66966    -4.619957   0.49129279    59.810061 
168600000    333.95936    265.72942   -5.2845235    -0.339523    68.229941 
168604000     318.4654    295.11568   -4.9727543      0.34959    23.349717 
168608000    323.90052    297.65939   -5.4827094  -0.62072853    26.241123 
168612000    314.70222    287.14543   -3.3256102   0.66329386    27.556786 
168616000    307.31954    261.66765   -3.5163304   0.71356541    45.651889 
168620000    319.07555    280.21498   -4.5546421    1.0406073    38.860572 
168624000     305.4717    305.76496   -3.8248182 -0.098562988  -0.29326628 
168628000    280.88227    281.53571   -1.4235877    1.0070913  -0.65344026 
168632000    309.98678    277.13352   -3.1368439    1.3539958    32.853252 
168636000    356.58578    276.64343   -4.8512508    1.0931589    79.942353 
168640000    297.97912    269.49443   -2.6474392    1.0381459     28.48469 
168644000      347.953    282.46713   -6.1892971    0.2978489    65.485875 
168648000    321.25285    275.98243   -4.4369481   0.88736878    45.270418 
168652000    323.88993    277.97297   -5.2724666    1.1006744    45.916967 
168656000    330.68919    269.64371   -4.9337857    2.1240797    61.045482 
168660000    333.69677    289.61641   -5.2369334  -0.80584057    44.080363 
168664000    311.02854    279.43043   -4.8417439   0.90500643    31.598116 
168668000    307.92005     273.7101   -3.7950095   0.52136811     34.20995 
168672000    310.36231    261.70861   -4.4719064    1.2448167    48.653703 
168676000    324.86802    283.05367   -4.2491016  -0.29017178    41.814343 
168680000    332.54013     282.9559   -5.1988922  -0.31279641    49.584231 
168684000    307.01462    274.88028   -4.3562354      1.30975    32.134343 
168688000    341.18923    255.14459   -5.4660385    2.7020203    86.044643 
168692000    321.09542    291.83461   -4.1379252  -0.18741762    29.260812 
168696000    302.64897    292.39494   -3.3975401 -0.048388765    10.254026 
168700000    339.91522    278.26935   -5.3319422   0.81674948    61.645867 
168704000     331.6365    283.82961   -5.3651662   0.83936618    47.806891 
168708000    300.83571    294.86326   -3.8366807  -0.72084012    5.9724487 
168712000    337.49008    274.49363   -4.5635655    0.5095331    62.996457 
168716000    320.11565    280.35431    -3.947889   0.30659097    39.761346 
168720000    327.94354     277.5083   -3.8758128    1.0084167    50.435236 
168724000    330.59292    282.86841   -4.7817177 -0.055148985     47.72451 
168728000    350.90208     275.8649   -5.3015914    1.6382599    75.037178 
168732000     323.5597    300.23682   -3.7010097    1.3281264    23.322886 
168736000     304.4521    277.03062   -3.2626872    1.5601852    27.421474 
168740000    331.48985    270.21155    -4.921654    2.1034863    61.278298 
168744000    309.19125    278.58272   -3.7438016    1.7053148    30.608535 
168748000    326.15965    270.48439    -6.105838    1.9280373    55.675255 
168752000    304.25965    280.34625   -3.6520574   0.80218467    23.913403 
168756000     305.4294    273.09055   -4.5559524   0.93777472    32.338852 
168760000    336.65428    285.26781   -5.0047906   0.49408432    51.386466 
168764000    309.72901    272.62753   -3.8007551     1.015675    37.101479 
168768000    315.84812    284.55859   -4.3324739   0.69227536    31.289528 
168772000    345.19472    292.32562   -5.9000246 -0.069254606      52.8691 
168776000    339.63761    278.31953   -4.8217917  0.054150942    61.318081 
168780000    317.96921    266.62397   -5.1965161    2.4053366    51.345237 
168784000    318.33812    275.25872   -4.4371024    1.7605539    43.079401 
168788000    332.50796    282.03102   -4.8498035   0.97692179    50.476942 
168792000    326.91647    277.63072   -4.4930427   0.87209391    49.285746 
168796000    313.91862     286.5229   -4.5986377   0.93446884    27.395719 
168800000    301.47561    284.74657   -3.4853966     1.171289    16.729041 
168801000    347.12238    280.21788   -4.8818973    1.1966058    66.904497 
Loop time of 1142.01 on 4 procs for 800000 steps with 1498 atoms

Performance: 15.131 ns/day, 1.586 hours/ns, 700.521 timesteps/s
99.6% CPU use with 4 MPI tasks x no OpenMP threads

MPI task timing breakdown:
Section |  min time  |  avg time  |  max time  |%varavg| %total
---------------------------------------------------------------
Pair    | 570.23     | 787.92     | 1011.5     | 761.4 | 68.99
Bond    | 3.5209     | 5.5261     | 7.4066     |  79.7 |  0.48
Neigh   | 6.512      | 6.5146     | 6.5163     |   0.1 |  0.57
Comm    | 15.002     | 225.12     | 439.84     |1395.3 | 19.71
Output  | 0.0061628  | 0.020267   | 0.039815   |   8.6 |  0.00
Modify  | 60.968     | 89.527     | 120.07     | 230.3 |  7.84
Other   |            | 27.38      |            |       |  2.40

Nlocal:    374.5 ave 714 max 35 min
Histogram: 2 0 0 0 0 0 0 0 0 2
Nghost:    2382 ave 4274 max 496 min
Histogram: 2 0 0 0 0 0 0 0 0 2
Neighs:    13107 ave 25904 max 315 min
Histogram: 2 0 0 0 0 0 0 0 0 2

Total # of neighbors = 52428
Ave neighs/atom = 34.9987
Ave special neighs/atom = 0.518024
Neighbor list builds = 1481
Dangerous builds = 0
unfix 1


# PRODUCTION

fix             1 all nve
fix             hot all langevin ${TThi} ${TThi}  0.005 59804  tally yes
fix             hot all langevin 320 ${TThi}  0.005 59804  tally yes
fix             hot all langevin 320 320  0.005 59804  tally yes
fix             cold all langevin ${TTlo} ${TTlo} 0.005 287859 tally yes
fix             cold all langevin 280 ${TTlo} 0.005 287859 tally yes
fix             cold all langevin 280 280 0.005 287859 tally yes
fix_modify      hot temp Thot
fix_modify      cold temp Tcold

variable        tdiff equal c_Thot-c_Tcold
thermo          4000

dump gigo all atom 4000 dump.cords_xyz.dat
dump_modify gigo scale no
dump vfgigo all custom 4000 dump.velo.dat id vx vy vz fx fy fz

# thermal conductivity calculation
# # reset langevin thermostats to zero energy accumulation
#
compute         ke all ke/atom
variable        temp atom c_ke/1.5/0.00008617333262

fix             ave all ave/time 100 40 4000 v_tdiff ave running
thermo_style    custom step temp c_Thot c_Tcold f_hot f_cold v_tdiff f_ave

#compute         layers all chunk/atom bin/1d z lower 0.05 units reduced
compute         layers all chunk/atom bin/1d z lower ${dz} units box
compute         layers all chunk/atom bin/1d z lower 6.0700273388011 units box
fix             2 all ave/chunk  100 40 4000 layers v_temp file profile.langevin

run             16000000
WARNING: Using a manybody potential with bonds/angles/dihedrals and special_bond exclusions (../pair.cpp:218)
Neighbor list info ...
  update every 1 steps, delay 0 steps, check yes
  max neighbors/atom: 2000, page size: 100000
  master list distance cutoff = 16
  ghost atom cutoff = 16
  binsize = 8, bins = 3 3 23
  4 neighbor lists, perpetual/occasional/extra = 4 0 0
  (1) pair lj/cut, perpetual, skip from (4)
      attributes: half, newton on
      pair build: skip
      stencil: none
      bin: none
  (2) pair morse, perpetual, skip from (4)
      attributes: half, newton on
      pair build: skip
      stencil: none
      bin: none
  (3) pair eam, perpetual, skip from (4)
      attributes: half, newton on
      pair build: skip
      stencil: none
      bin: none
  (4) neighbor class addition, perpetual
      attributes: half, newton on
      pair build: half/bin/newton
      stencil: half/bin/3d/newton
      bin: standard
Per MPI rank memory allocation (min/avg/max) = 12.03 | 12.29 | 12.44 Mbytes
Step Temp c_Thot c_Tcold f_hot f_cold v_tdiff f_ave 
168801000    290.20842    347.12238    280.21788           -0           -0    66.904497            0 
168804000    278.79019    339.26312    261.01974   -0.9478898    1.4584001    78.243385            0 
168808000    277.81963    332.79227    257.14775 -0.080123919    1.1595738    75.644521    36.798662 
168812000    283.03667    306.59823     284.8597   0.86113308  -0.66986374    21.738528    40.228478 
168816000    270.85977    305.51879    286.76074    1.0809386  -0.93556424    18.758049    40.599775 
168820000    282.72901    300.63951    299.11245    1.4612781  -0.99433261    1.5270585     39.60987 
168824000    274.66717    335.88913    270.29488   0.13787035   0.21411803    65.594249    39.237406 
168828000    286.25854    347.81605    292.13644   0.19036427   -1.0612675    55.679611    39.420212 
168832000    268.92854    294.56841    274.53604    1.5617217   0.61578567    20.032377    39.180866 
168836000    279.45561    336.27187    264.14187 -0.042423886    1.8725684    72.130003    39.323147 
168840000    282.48792    350.57021    271.77362   -1.8295141    1.2911491    78.796591    39.629545 
168844000    272.98493    309.62678    269.52215   0.67904729    1.9109511    40.104632    39.034524 
168848000    287.91512    334.67495    286.70375   -0.2453646   0.98863915    47.971199    39.363478 
168852000    279.30912    336.05284    283.00242   0.42114626   0.39537406     53.05042    39.387166 
168856000    274.62274    314.82639    275.52801    1.4497631   0.37677435    39.298382    39.087166 
168860000    280.54731    317.56254    292.63621    1.8714116   -0.1000061    24.926328    39.417434 
168864000    275.95134    309.03736    283.92361    2.1189685   0.79313991     25.11375    39.337819 
168868000    276.20315    337.15036    282.48556   0.79216702    1.2633608    54.664801    39.416654 
168872000     271.1287    302.75985    290.03893     1.063868    1.7455686    12.720921      39.3467 
168876000    276.31452    331.60345    277.62161    2.1795675    1.4435887     53.98184     39.14732 
168880000    271.89711     326.7705    278.69542    1.8552911   0.67261837    48.075084    39.477178 
168884000    279.25385      346.667    274.26609   0.73217067    1.7079881    72.400908    39.527837 
168888000    272.79042    330.72305    272.73239    1.4997547    1.5335326    57.990667    39.597791 
168892000    270.63484    304.46659    291.03275    3.5415303    1.0226729    13.433837    39.497301 
168896000    268.89271    309.16542    296.68245    3.1751169    1.2303956    12.482972    39.381061 
168900000    272.84304    326.40875    292.81294     3.033843    1.0571922    33.595818    39.576388 
168904000    273.47327    323.41199    287.13932    2.1763371    1.5006177    36.272672    39.608038 
168908000    274.57715    329.91521    275.34598    2.4649448    2.1925682    54.569227    39.657057 
168912000    265.74678    318.58912    261.73847    2.9474356    3.3671033    56.850643    39.686589 
168916000    272.73286    330.34782    289.18972    1.4214515    1.5666525      41.1581    39.605904 
168920000     272.2418    321.54526    265.62622    2.6053276    1.8288564    55.919032    39.675231 
168924000     275.2934    320.14385    274.09391    1.6472862    1.9080108    46.049942    39.872429 
168928000    265.72408    296.55285    271.83796    3.4749403    1.4102029    24.714889    39.863282 
168932000    276.40927    343.51361    281.36583    1.7343479   0.76416358    62.147775    39.743184 
168936000    273.98393    327.18923    284.21824    2.5758337   0.95509727    42.970995    39.947563 
168940000    277.37683    320.25239     297.1193    2.9516018   0.57531126    23.133089    39.988499 
168944000    276.67762    305.58903    280.29366    2.7055614   0.80526846    25.295373    39.946347 
168948000    269.58815    314.87608    286.58642    3.0312807   0.18169764     28.28966    39.884262 
168952000    279.05194    333.02018    278.94582    2.4639813    1.7312563    54.074356    39.967183 
168956000    275.03194    335.61103     279.3505    1.6165673   0.83704019    56.260528    40.097404 
168960000     268.6961    310.22164     283.4802    3.0909872    0.9178974    26.741437    40.035749 
168964000    266.07544    331.50481    258.20792    2.4718012      2.18513    73.296889    40.130363 
168968000    277.25254    313.44004     276.8342     2.789037    2.4954737    36.605839    40.202232 
168972000    272.16113    342.52047    264.21893    1.3744963     2.206921    78.301531    40.212559 
168976000    277.79626    337.53799     271.0116    2.6210627    1.3696733    66.526391    40.329006 
168980000    268.91394    318.79998    264.37246    3.1874501    2.2752714    54.427519    40.357558 
168984000     268.3814    327.56766    260.26181    2.2633541    1.8308624    67.305855    40.274111 
168988000    268.83189    316.10799    275.85712    2.9571684    2.0028375    40.250873    40.319031 
168992000    271.30939    316.25598    256.89836     2.927735    2.8030446    59.357625    40.262116 
168996000    273.46821    335.52448    279.30836    2.5739103  0.064645702     56.21612    40.302973 
169000000    283.05252    333.55561    293.04396    3.1816047   0.23259859    40.511642    40.227952 
169004000    277.56893    319.00665    279.67589    3.5447163    1.1794147    39.330751    40.242321 
169008000    274.87559    314.39792    290.28959    2.8149118 -0.0046703428    24.108331     40.21824 
169012000    268.56214    322.81163    271.70964    2.4454556    1.6548322    51.101995    40.259962 
169016000    263.39036    309.15425    254.73936    2.8695383    1.9603918    54.414896    40.216359 
169020000    268.96435    307.23698    289.66635    2.4364872   0.39603276    17.570622    40.131572 
169024000    280.54872    340.81841    279.05745    2.0800853    1.1016218     61.76096    40.107855 
169028000    277.00955    325.75934    286.72545    1.7082009   0.72245807    39.033883    40.108877 
169032000    277.52384    330.80288    262.49563    1.8641624   0.83322515    68.307256    40.122881 
169036000    266.53485    296.73403    266.79686    3.6758583   0.73335553    29.937176    40.105481 
169040000    279.51882    313.45873    296.22493    3.7777562  -0.34604458    17.233802    40.014835 
169044000    273.67033    325.22033    259.24695    2.6283816   0.60571266    65.973378      39.9974 
169048000    280.73455     324.3504    297.50242    2.3546106  -0.68711874    26.847986    39.930905 
169052000    275.17477    318.53371    279.13213    2.0131861   0.38918679    39.401584    39.937586 
169056000    272.19606    312.15101    274.40835    2.9119589   0.65734267    37.742656    39.958374 
169060000    277.34079    325.32471    281.78109    2.3876359   0.57097871    43.543618    39.935751 
169064000    283.97352    342.31795    281.96097   0.13519943  -0.40688096    60.356985    39.863519 
169068000    278.67891    299.78378    301.18685    1.8968508  -0.52176148   -1.4030765    39.861846 
169072000    281.60807    331.85496    294.37613    1.2532726   0.10576387    37.478833    39.901178 
169076000     275.5904    312.59169    262.21452    3.2019172    1.3895143    50.377168     39.95769 
169080000    283.87742    321.47787    290.50227    1.2455033  -0.60040678    30.975596    40.023599 
169084000    277.08605    338.49394    274.74531   0.71762503    1.1442805    63.748633    40.012138 
169088000    273.63312     308.0015    292.77621    2.0801816 -0.023575537    15.225287    40.012888 
169092000    274.55465    338.03086    279.05752    1.5141274   0.87880672    58.973344    39.984609 
169096000    264.18186    286.94987     286.6068    3.5237174   0.47721392   0.34307154    39.919549 
169100000    269.96451    307.29254    286.33696    3.3546409  -0.22097783    20.955575    39.870366 
169104000    270.55157    314.59246    264.68934    3.6259619    1.6884347    49.903118    39.850773 
169108000    276.83619    346.41866    270.46764    1.6739339    1.5508298    75.951011    39.833037 
169112000     269.7103     313.3714    272.69637    3.2123667    1.3259737    40.675033    39.809247 
169116000    281.06126     313.1781    289.39798    2.7093472  -0.23676806    23.780123    39.761826 
169120000    269.10722    322.44928    270.25397    2.2635661   0.48714863    52.195305    39.788816 
169124000    275.39115    325.95257    274.63272    1.4559117    1.2794382    51.319854    39.815406 
169128000    269.70994    322.72218    254.33278    2.5007149      1.10274    68.389404    39.836686 
169132000    277.73228    318.63216    291.16397    2.5582313  -0.81041257    27.468187    39.899827 
169136000    269.67675    320.08341    267.62389    2.2311675   0.98870132    52.459527    39.923909 
169140000    270.43079    301.57545    278.02659     2.361287   0.67618179    23.548859    39.878514 
169144000    267.66355    315.02322    271.63863    1.2998501 -0.019704927    43.384587    39.899241 
169148000    273.81886    312.23294    294.43924    2.3852133  -0.15438962    17.793696    39.942428 
169152000    274.25759    336.28813    255.68787     1.594236    2.8892128    80.600259    39.973625 
169156000    280.51758    330.56399    268.10927    2.0291697    1.5295073    62.454721    39.968714 
169160000    267.82134    324.79682    276.14054    2.2089602   0.90686543     48.65628    40.003203 
169164000    284.58462    339.10034    291.31943    1.9249996  -0.26627235    47.780902     40.03234 
169168000    274.25823    311.87188    278.09775    2.9698909    2.0824242     33.77413    40.056975 
169172000    275.68198    331.77068    265.51343    1.9338276    1.0465536    66.257255    40.058185 
169176000    279.23016    312.91497     285.7012     2.721283   0.96230154    27.213775    40.041682 
169180000    275.61333    298.36488    275.82485    2.8740654    2.0685428    22.540037     40.05743 
169184000    276.00409    303.14753    289.84257    2.8118422   0.96693638    13.304961    40.088327 
169188000    285.71704    334.02153     301.3511    2.0637257   0.41521405    32.670428    40.057535 
169192000    270.40167    301.76585    281.42804    2.7077897    1.5942957    20.337806    40.051752 
169196000    280.42366    327.23375    291.77414   0.69960566      2.12976    35.459615    40.033713 
169200000    273.54737    304.63356    294.43912    1.7889348    1.9369398    10.194433    39.984074 
169204000    271.72333    318.20288    283.47235   0.38260482   0.63729408    34.730532     40.01958 
169208000    273.69721    330.56635    260.81646   -0.2844904    2.0844012    69.749887    40.013055 
169212000    279.91928    312.86298    289.23081  -0.15092671    1.0023913    23.632168     40.03126 
169216000    280.39056    339.87793    267.88949  -0.18359127    3.9426448    71.988446    39.992001 
169220000    283.39385     325.6537    294.82412   0.71348717    1.5549677    30.829576    39.978942 
169224000    283.64998    325.39251    283.82774    1.1972713    0.8527014    41.564768    39.929928 
169228000    282.10683    327.93355    297.57925   0.47997047  0.096773085    30.354307    39.918425 
169232000    271.61993    309.12593    285.88826    1.0082432    1.4095138    23.237668    39.905079 
169236000    279.97048    306.04178    287.22711     1.665683    1.5590123    18.814667    39.922388 
169240000    269.75438    326.05396    264.40356    1.6454259    1.4035691      61.6504    39.927011 
169244000    273.15812    312.32844    293.52245    0.8065391   0.85725575    18.805992    39.930529 
169248000    277.33953    340.38306    261.67224  -0.13942993    3.1548461    78.710815    39.945614 
169252000    274.93768    322.92711    274.56541   0.80495262    1.6458975    48.361697    39.901526 
169256000    276.73887     324.4919     287.1173    1.0634476    1.7901754      37.3746     39.85431 
169260000    273.73273    312.01895    282.90849    1.2903018    1.7539202    29.110455    39.892493 
169264000    275.20705    303.80042     276.5822    1.6309437    1.5549725    27.218213    39.844099 
169268000    279.83003    321.37899    297.41895  -0.21163935    2.1172457    23.960039     39.84433 
169272000    281.57763    327.64878    296.66065  -0.51449829    1.3998951    30.988131    39.872273 
169276000    261.40611    290.32414     270.0776     2.065707    2.1906624    20.246537    39.873086 
169280000    281.53476    324.75298    275.63283  -0.40181145    2.1160111    49.120157    39.839155 
169284000    276.23365    328.69012    260.37177   -1.8791251    1.9538387    68.318343    39.844077 
169288000    279.32674    322.32649    285.68441  -0.61609047    1.0291961    36.642079    39.846502 
169292000    268.84199    306.28042     261.7166   0.26744679    3.0550191    44.563822    39.838175 
169296000    290.44161     330.1346    299.83353   -1.2040382    1.4616944    30.301074    39.849618 
169300000    279.27971    339.71367     265.3482   -1.4305384    2.1358724    74.365465    39.865534 
169304000     270.3968    319.24685    278.05062   0.14781181    1.4242921    41.196229    39.882747 
169308000    278.25684    332.55601    286.78641  -0.67247585    2.1361758    45.769607    39.852792 
169312000    274.30944    298.31755    281.91103   0.16142434     1.492488    16.406524     39.84865 
169316000    284.72691    317.78822    280.09005  -0.22133092    2.0597613    37.698162     39.85471 
169320000    284.56549    335.13963    278.91116   0.40189335    1.8986363    56.228472    39.907299 
169324000    282.87772    329.97273    296.28387    0.5408173     1.154893     33.68886     39.89734 
169328000    281.88867    313.98523    286.37109  -0.64042625    1.5190129    27.614138     39.91633 
169332000    274.23206    317.32531    284.52796   -1.3487368    2.1527235    32.797348    39.939568 
169336000    281.78639     321.2603    287.28152   -1.1641273    1.7593071    33.978784    39.954366 
169340000    277.80843    319.73275    312.78026  -0.15817073    1.4542691    6.9524867    39.969184 
169344000    280.08967    342.88816    282.92562   -1.3899267    3.0193976    59.962538     40.01466 
169348000    274.84883    320.57597    282.66718 -0.083411259    2.1294855    37.908797    40.001139 
169352000    281.85241    335.13634    276.67239  -0.87788379    2.4331318    58.463956     40.00705 
169356000    271.79912     336.8765    283.59581   -1.1093196    2.2310373    53.280687    39.993388 
169360000    281.58566    325.51591    276.90015   -1.6532706    2.4344741    48.615767    39.960357 
169364000    272.96085    308.92212    277.21305   0.74045062    1.5752157    31.709069    39.971415 
169368000    274.56726    298.55937    286.57847   0.51551481    2.2320291      11.9809    39.994494 
169372000    278.60009    323.54574     279.0407   -1.1434506    1.3065782    44.505047    39.993357 
169376000    273.53866    308.80041    269.13836    1.3464478    2.6281706    39.662048    39.974885 
169380000    269.94481    312.31644    287.12889    1.1858797   0.74599786    25.187551    39.971307 
169384000    277.35868    337.27541     277.8462  -0.70666834    2.9427831    59.429206    39.973722 
169388000    273.91507    297.16275     284.0745   0.74424598      1.56246    13.088255     39.97576 
169392000    274.49099    291.59203    296.31428    1.3738067    2.0336509   -4.7222551     39.95304 
169396000    286.41189    330.76905    297.74649  -0.88761787    2.4371538    33.022553    39.975093 
169400000    276.26485    323.87282    280.13111  -0.17407631    3.4527101     43.74171    40.000037 
169404000     276.5924    316.50517    271.20185   -1.3480988    4.3821342    45.303321    40.008053 
169408000    280.71697    327.28958    277.02796   -1.0307325    2.8367582    50.261624    39.978185 
169412000    271.61328    297.45777    302.48485   0.72809928    3.0854699   -5.0270749    39.968396 
169416000    279.11351    315.77532    297.47746  -0.43023478    2.6229621    18.297856    39.971873 
169420000    278.83638    328.67155    280.63003   -1.2731988    4.2734531    48.041521    39.962244 
169424000     271.6932    314.15926    267.45547  -0.80567015     5.012041     46.70379    39.967087 
169428000    271.92739    297.09548    278.56374    0.4952364     3.843153    18.531735      39.9793 
169432000    278.06722    306.72601    300.14917   0.19897431     2.724307    6.5768398    39.972159 
169436000    280.24072    353.37645    263.56229   -1.8198001    3.5691128    89.814168    39.975315 
169440000    264.62168     316.3408    258.02368   -1.7832716    4.3084833    58.317123    39.947729 
169444000    274.47203    315.00517    281.58999   -1.2060484    3.2042978    33.415184    39.923706 
169448000    275.06492    337.71248    281.39727   -1.7095333    4.0662742    56.315211    39.909739 
169452000    274.19073    321.10856    282.44215   -1.7490066    3.2822433    38.666413    39.952464 
169456000    283.58246    331.97902    300.05819  -0.60303111    3.4775212    31.920827    39.956713 
169460000    268.34599    322.39011    264.14178 -0.035442946    4.2682942    58.248326    39.963507 
169464000    274.64208    326.69179    267.07877  -0.55346157    5.1932303    59.613021    39.984345 
169468000    278.21548    313.22773    274.34509  -0.20974949    3.6123869    38.882636    39.981052 
169472000    275.95511    315.15221    256.82827  -0.27424632    4.4409859    58.323941    40.014715 
169476000    270.69287    306.71018    285.59533  -0.69922866    2.8132143    21.114849    39.997031 
169480000    272.45957    308.36625     285.2755  0.079985356    3.7212909    23.090756    40.016337 
169484000    282.28968    309.94479    275.98123   0.21459923    4.3473039    33.963559    40.000257 
169488000    277.32023    328.64768    282.31894   0.22688459    3.6689561    46.328742    40.013694 
169492000    277.35172    306.44783    303.42936   0.29180338    2.5585755    3.0184743    39.999024 
169496000    265.78063    308.99045    267.46034  -0.56073401    4.6447093    41.530111    40.016883 
169500000    279.38689    346.44265    300.99087   -2.3625447    2.9460186    45.451781    40.041711 
169504000    276.90411    334.27319    277.42106  -0.56453368    4.1384483    56.852134    40.035354 
169508000    273.53933    310.22401    278.38765  -0.85767943    4.4106156    31.836354    40.034993 
169512000    269.35918    322.28312    268.71049    1.3333796    4.5890828    53.572633    40.063192 
169516000    269.86731    348.81116    249.19009   -1.6684003    5.1243556    99.621069    40.040948 
169520000    267.74832    314.72391    265.18777  -0.42412685    4.3637618    49.536139    40.050905 
169524000    278.77599    316.36328    297.35514    -0.203889    3.7356698    19.008141      40.0472 
169528000    276.71956    342.57942     283.3476   -1.7687157    4.1760937    59.231822    40.061755 
169532000    276.98825    313.18581    281.22062 -0.086849439    4.4992949    31.965191    40.055272 
169536000     280.0308    330.00754     283.8256   -1.2641235    3.3382809    46.181946    40.070632 
169540000    278.56808    321.41142    285.43485  -0.41188676    3.7558646    35.976576    40.054962 
169544000      278.257    326.09158    266.16145  -0.42877563    4.2661198    59.930131    40.078871 
169548000    275.18852    329.55603    291.20857   -2.7156207    3.0465991    38.347465    40.077664 
169552000    281.14664     302.0283    295.54156  -0.73696774    2.8869014    6.4867332    40.058844 
169556000    283.28406    321.85572    285.70634   -2.0932189    3.1215932    36.149375    40.050687 
169560000    278.35527    339.66624    270.35278   -2.7714382    4.2541835    69.313461    40.040087 
169564000    269.50453    310.09907    272.82337  -0.83681095    5.2555295    37.275695    40.041231 
169568000    278.47383    327.36909    275.94835   -1.1788629    5.5689546    51.420744    40.057976 
169572000    277.45266     323.6835     286.4105   -1.5097045    4.5039299    37.273004     40.07335 
169576000    276.65867    337.65283    277.45012   -2.0186719    3.9462831    60.202704    40.100345 
169580000    275.40621    326.30649    284.67709   -1.9396101    3.5349552    41.629403    40.134666 
169584000    278.77996     325.1139    275.50624   -1.6167369    4.3668904    49.607663    40.134366 
169588000    272.55366    346.96898    246.38815   -2.4943406    6.2307016    100.58083    40.125678 
169592000    282.53488    323.92308    303.34433   -3.0364338    3.0775431    20.578751    40.111566 
169596000    281.78244    326.19032    298.09954   -2.3624414    3.0667647    28.090782    40.131212 
169600000    280.94847    315.94367    273.62062   -2.8715884    4.1485303    42.323049    40.126757 
169604000    276.78745    323.50448    272.97418   -2.9994932     3.077244    50.530302    40.109861 
169608000    283.40199    331.89876    278.41113   -3.3435915    3.4315155    53.487634    40.133252 
169612000    281.31095     325.3858    283.84782   -1.3159637    2.9651487    41.537979    40.133141 
169616000    274.71477    304.69918    278.46502  -0.41254871    3.6017135    26.234154    40.120753 
169620000    279.02747    326.10294     284.0663   -1.6641115    2.7180274    42.036639    40.115066 
169624000    280.56223    325.66098    290.63662   -1.5197041    2.5867572    35.024359    40.120281 
169628000    288.03301    347.02212    287.57981   -2.4656857    2.1283485    59.442308    40.121416 
169632000    273.90977    322.90583    272.71904   -1.1666252    3.3240886    50.186784    40.124825 
169636000    280.79158    329.64246    273.13722   -1.4571439    3.7707338    56.505241    40.117897 
169640000    266.04959    296.58496    276.45326 -0.080891318    3.1368226    20.131698    40.104987 
169644000    279.79036    314.83578    302.33117    -1.288093    3.0630566    12.504611     40.08445 
169648000    274.53529    311.14775    264.55443   -1.5856525    4.0767061    46.593322    40.095132 
169652000    282.80087    323.11924    278.21745   -1.5337725    3.6769791    44.901793    40.088345 
169656000    268.15814    295.71883    261.91532   -1.2709862    5.9398071    33.803516    40.072951 
169660000    273.57849     317.7581    269.36284   -2.4075996    5.1530044    48.395268    40.078609 
169664000    276.31575    326.67476    276.97363   -2.3673922    3.8915594    49.701134    40.063892 
169668000    273.23773    320.01842    270.08318   -1.8227986    1.8774084    49.935246    40.062417 
169672000    272.36191    297.06811    271.17864  -0.41911119      3.65065    25.889465    40.042418 
169676000    272.02143    319.82593    252.59272   -1.5572968    4.5241121    67.233216      40.0608 
169680000    271.49369    321.70781    270.48254  -0.67490071    4.6307146    51.225263    40.073061 
169684000    264.70433    298.95882    244.26012  -0.58407384    5.5815481    54.698696    40.094974 
169688000    274.33219    315.25558    277.86201  -0.47959799    4.3639881    37.393566    40.084837 
169692000    268.54519    301.50703    279.61199   0.75177217    1.9761658    21.895039    40.067202 
169696000    279.33421    313.64444    305.63288   -1.6782878    3.2279927    8.0115555    40.067599 
169700000    273.09712    306.97234    278.50131   -1.5825347    3.8644589    28.471024    40.101797 
169704000    274.20379    322.20645    259.09953   -1.0120481    4.6032226    63.106922    40.105839 
169708000    278.18401    319.48729    289.18414  -0.60077409    4.2737382     30.30315    40.117036 
169712000    270.74408    309.93235    284.89914 -0.0033335833     4.388283    25.033212    40.108077 
169716000    275.61109    336.35492    259.41133    -1.945413    5.3984269    76.943592    40.108879 
169720000     279.9185    342.74377    292.87926   -2.5762652     4.054253     49.86451    40.112782 
169724000    269.08753    296.90932    284.81127 -0.061209371    4.6510016    12.098053    40.125745 
169728000    283.05593    335.34195     293.0226  -0.56596114    3.2647702    42.319351    40.132401 
169732000    275.58915    316.01357    297.58486    -1.491049    3.6439053    18.428708    40.113662 
169736000    269.37287    312.63076    287.92775   -1.6381856    3.8191017    24.703004    40.101051 
169740000    275.30812    339.79152    272.59813   -3.4590659    5.5378314    67.193392    40.119683 
169744000    273.60996    320.92566    266.30319   -1.1533798    4.6245507    54.622468    40.117338 
169748000    268.49121     314.9722      257.698   -1.2994398    4.6901702    57.274196    40.127151 
169752000    278.91765    319.18348    288.71563   -1.6764975    3.5153559    30.467846    40.146318 
169756000    280.90496     349.3566     283.1143   -3.0416937    4.4984066      66.2423    40.146423 
169760000    264.97542    304.83426    267.48072    -2.264224    4.6978345    37.353537    40.154598 
169764000    275.05498    324.70748    275.80941   -1.7455379    3.1909845    48.898072    40.153588 
169768000    275.04928    294.10415    290.65566   -1.1002827    3.6786394    3.4484915    40.151611 
169772000     273.7606    306.10989     281.0402   -0.5422139    3.8669287     25.06969    40.141192 
169776000    273.52647    315.75313    283.83618   -2.5580028    3.2808893    31.916948    40.132777 
169780000    283.74786    337.62739    284.47399   -3.4237516    3.8089254    53.153396    40.132073 
169784000    273.53722    317.49778    280.73259   -2.6196153    4.5513097    36.765185    40.127595 
169788000    281.77848    346.64748    272.26095   -3.1935384    4.4936354     74.38653    40.120873 
169792000    264.94562    317.46576    263.52748   -2.2528556    5.0143575    53.938281    40.117825 
169796000    271.67397    309.24733    293.65787   -1.0340886    3.6627417     15.58946    40.112897 
169800000    282.89455     331.6832    292.86897   -2.7181505    3.6304999    38.814228    40.116726 
169804000    281.79332    323.66997    297.06866   -2.2039896    2.4092101    26.601309    40.110599 
169808000    274.20536    342.35815    275.34281   -2.8214471    4.2941093    67.015338    40.104693 
169812000     274.1293    314.47513    280.58914   -1.6051463    5.0946092    33.885992    40.101598 
169816000    272.61167    323.27765    259.16855   -2.9235326    4.5323565    64.109103    40.114071 
169820000    286.54793    359.33696    288.16795   -4.2232811    3.6601093    71.169001    40.108327 
169824000     274.6197    320.85665    291.86495   -3.0325913    3.4799636    28.991701    40.119865 
169828000    287.26814    326.14745    300.56222   -1.8086789    3.0317808    25.585229    40.114882 
169832000    282.34187    338.66528    278.93785   -2.8845275    3.8164264    59.727426     40.10754 
169836000    275.20104    323.86833    263.51636   -1.9354214    4.2228145    60.351971    40.105246 
169840000    277.47053    333.91639    284.51118   -2.5411934    3.8797406    49.405211    40.096045 
169844000    283.99002    322.90766    286.33405   -3.3225883     3.083765    36.573609    40.074586 
169848000    285.51815    339.43878    282.70656   -2.4809735    3.0835636    56.732219    40.053587 
169852000    272.79553    331.25209    256.32847   -2.2268167    5.4140328    74.923617    40.056356 
169856000    267.52151    304.74203    265.61165  -0.44140936    4.0324779    39.130384    40.049746 
169860000    286.14236    350.06782    287.63499    -2.853682    4.6737103    62.432831    40.070575 
169864000    268.81442    320.45914    269.60404  -0.60279207    4.6651632    50.855109    40.076025 
169868000    276.85859    325.83655    281.49616   -1.8187557    5.5755189    44.340399    40.073913 
169872000    273.60699    332.37876    267.77864   -0.3389301    4.7310935    64.600112    40.071341 
169876000    283.29958    328.74775    295.46447  -0.89397669    4.6038892    33.283277    40.073122 
169880000    278.87541     338.2633    281.02593   -1.9493658    3.6053591    57.237375     40.06597 
169884000    277.28375    320.96386    284.65401   -1.8241332    4.6003874    36.309853    40.074302 
169888000    268.06819    334.17034    271.33496    -2.159183    4.9027685    62.835375    40.086175 
169892000    265.79136    327.45082    262.77822   -1.5535336    5.2806202    64.672598    40.095768 
169896000    287.80163    343.59243    295.22669   -1.7804738    3.7738253    48.365743    40.101113 
169900000    281.57438    344.42732    284.74625   -2.0122733    3.5151672     59.68107    40.104977 
169904000    275.80878    317.38313    285.52852  -0.62798114    3.7265544    31.854606    40.087178 
169908000    269.53379    325.34687    267.74127   -0.6706132    5.4487568    57.605603    40.079675 
169912000    279.25305    321.77766     278.3816  -0.62509373     4.673446    43.396058    40.067355 
169916000    269.62185     311.9188    266.70248   -1.0579864    4.7453298    45.216322    40.079882 
169920000    272.50642    329.58775    274.70633    -1.722466    4.2741969    54.881421    40.076612 
169924000    278.29076    330.12294    301.59607   -1.3128209    2.6674591    28.526875     40.07856 
169928000     275.8328    313.78783    280.31186   -1.0507956    4.1448327    33.475969    40.068434 
169932000    278.35246     317.6524    290.65555   -1.4183786    4.4715879     26.99686    40.079858 
169936000    274.36147     298.7723    288.55077  -0.17393031    4.1030625    10.221523    40.078457 
169940000    267.27196     301.4952     283.4345  -0.10304456    4.7140447    18.060708    40.085218 
169944000    271.74989    305.85764     274.9156    1.0492979    4.8611495    30.942034    40.077342 
169948000    275.81244    316.94389    304.40944  -0.66539468    3.2474437    12.534459    40.060891 
169952000    274.10434    312.59839    262.82121   -1.4659295    5.3524591     49.77718    40.070385 
169956000    284.00298    358.00854    292.08643   -3.3828423    3.9784208    65.922108    40.084114 
169960000    278.02331    322.47609    275.69159   -1.1488809    4.7720999    46.784499    40.096925 
169964000    273.71347    334.75016    265.18966   -1.3770501    4.9529292    69.560493    40.100581 
169968000    278.15196    337.66543    250.35091  -0.98296455    6.2002668     87.31452    40.089728 
169972000    270.38996    307.51607     278.9719   -1.0255448    4.7772238    28.544167    40.081201 
169976000    272.98748    308.19784    284.08527  -0.57248591    3.9783409    24.112571    40.091692 
169980000      277.077    321.61097    264.27243   -1.8442634    3.2798398    57.338544    40.090863 
169984000    284.82145    333.21596    296.38357   -2.0962374    3.1470849    36.832397     40.10122 
169988000    279.40303    305.31967    283.62671  -0.48321418    2.7700309     21.69296    40.095616 
169992000    268.82084    318.12713    260.31861   -1.5337441    4.2090532    57.808518    40.102986 
169996000    279.25317    333.15881    280.28791   -2.0053066     3.171992    52.870898    40.116778 
170000000    274.66308    290.59006    293.88823    1.1096988    2.6173628   -3.2981659    40.110777 
170004000    279.32131    317.18598    293.68242   -1.3442473    3.6111714    23.503567    40.123424 
170008000    283.00007    335.11129    292.39731   -1.5447369    3.0466305    42.713977    40.111167 
170012000     276.1501    326.87303    295.73852   -1.2284172    2.4821595    31.134516    40.116677 
170016000    278.16131     329.3651    276.42552   -1.2798265    2.4607152    52.939574    40.117743 
170020000     278.7164    328.15919      288.098   -1.3970924    2.6557148    40.061186    40.120191 
170024000     269.4949     326.7603    271.66439   0.13198695    5.1346706    55.095909    40.118738 
170028000    271.73977     327.8003    285.09073   0.41894427    3.7237173    42.709574    40.126317 
170032000    268.39773    308.24327     278.0974   0.17059534    4.1754143    30.145873    40.131612 
170036000    268.18244    311.14177      268.105 -0.034961552    5.6984258    43.036773    40.123435 
170040000    272.19295    323.82501    273.92445 -0.096566089    4.3545665    49.900553    40.115133 
170044000    274.78879    329.49631    277.16281  -0.55057148    3.1810733    52.333504    40.123346 
170048000    275.72069    321.45405    275.10186   -1.8802148    3.2745784    46.352198    40.123466 
170052000    278.41465    346.71676    281.69125   -3.7214379    3.8593831     65.02551    40.125842 
170056000    279.09884    315.48638    306.41033   -1.8901416    2.7560027    9.0760449    40.116835 
170060000    275.80657    338.44023    278.56176    -1.409268    3.8768026     59.87847    40.119869 
170064000    271.17701    307.39292    268.84119  -0.29057561    5.3370986    38.551731    40.104725 
170068000    270.79296    322.49425    271.92756  -0.25217537    4.5774748    50.566689    40.106974 
170072000    275.29731    330.63623    276.87618   -1.9617876     5.179871    53.760048    40.119194 
170076000     273.4443     326.5609    285.14523  -0.62489355    4.6494705     41.41567    40.119698 
170080000    272.60359    329.69337    278.34701  -0.93361077    4.2984229    51.346363    40.125072 
170084000    271.20878    303.55344    292.34522    0.7637316     2.942238    11.208219    40.124513 
170088000    270.82083     322.0838    276.94809   -1.2026899    3.2381692    45.135706     40.12191 
170092000     277.6118    333.65137    280.83495   -3.0287852    3.3013249    52.816425    40.124724 
170096000    274.45305    328.62516    275.55567     -2.00478    3.8489909    53.069487    40.126855 
170100000    275.69069    300.66534    279.64023 -0.018411745    3.9393232    21.025106    40.117115 
170104000     278.6317    332.94073    277.72954  -0.67255752    3.8571962    55.211181    40.107427 
170108000     265.1069    314.84503    263.56546  -0.47590235    4.1956518     51.27957    40.115343 
170112000    287.29214     327.5301    301.93798   -1.5949593    2.6754336    25.592127    40.113761 
170116000     270.6834    315.67718    268.29038   -1.8644785    4.3870575    47.386793    40.111965 
170120000    271.76447    300.82194    275.58045   0.38960537     4.149699    25.241492    40.098171 
170124000    279.09716    313.90429    283.76686   -0.9455151    3.6641454    30.137428    40.097779 
170128000    269.71294    328.47571    252.33737   -1.8595304    4.7282417    76.138337    40.092114 
170132000    288.53726    352.82293     286.8785   -2.0512411    3.2620005    65.944426    40.107435 
170136000    275.53264    306.55474    281.62253   0.54184431    3.8423582     24.93221    40.114953 
170140000    285.07185    320.30386    296.59564   -1.2842716      3.55203    23.708214    40.121403 
170144000    276.99458    335.12775    272.43847   -1.7796717    5.2963211    62.689283    40.116342 
170148000    277.10498    308.87175    293.61958  -0.93647516    4.0733497    15.252168    40.106986 
170152000    266.52651    306.75103    271.18793  -0.47774612    3.7888651    35.563098    40.116791 
170156000    272.62917    316.28313    283.40643   -1.6737633    3.8597427    32.876708    40.130345 
170160000    267.93502    306.52784    270.80466  -0.76462929    5.6716692    35.723184    40.140486 
170164000    268.03689    319.62021    259.67161   -1.1651727    4.7136699      59.9486    40.138033 
170168000    270.89923    315.10526    281.06167   -1.5193219    4.6257787    34.043584    40.131453 
170172000    275.92839    336.82131    270.67171   -3.4786912    5.0364275    66.149596    40.135177 
170176000    276.62135    326.16609    286.60669   -2.9448794    4.4824569    39.559404     40.14128 
170180000    280.18364    324.75568    290.90843   -2.6080047    4.1613399    33.847248    40.142091 
170184000    283.93632    332.21644    302.76319     -3.31971     2.751539    29.453244    40.155371 
170188000    265.90922    292.36506    273.41705   -1.2928676    5.1787207    18.948004    40.164632 
170192000    271.05564    312.28226      280.231   -1.8006844    4.6840137    32.051262     40.16791 
170196000    283.41115    336.03573    272.41137   -3.7344838    5.7041291    63.624355    40.159835 
170200000    259.16352      291.781    258.37568   -1.2762471    7.0636438    33.405317    40.153063 
170204000    276.55779    324.86952    287.75177   -1.9966955    4.6556979    37.117756    40.142733 
170208000    273.08748     328.6718    263.60392   -2.6979422    5.5685343     65.06788    40.148123 
170212000    281.96123    323.68298    289.07179   -2.2404537    4.8481601    34.611188    40.137225 
170216000    271.86082    304.03464     286.1425   -1.6898652      4.77635    17.892133    40.131963 
170220000    272.31004    318.59927    289.99813   -2.5740027    4.5113526    28.601138    40.123794 
170224000    261.56638    292.55725    270.49499   -2.0835669    5.0871793    22.062252    40.117565 
170228000    268.14315    320.23996    261.18564   -4.3431216     6.180821    59.054321    40.117517 
170232000    269.04847    312.14733    277.92022  -0.91574233    5.9280199    34.227101    40.116314 
170236000    267.55659    326.30895    253.24035   -3.6254496    6.2259947    73.068603    40.126727 
170240000    277.34168    333.46951    283.86221    -3.869162    5.1945125    49.607295    40.130973 
170244000    278.73283    327.39661    275.99645   -3.3172173    4.8822103    51.400155    40.143494 
170248000    281.88842    315.76656    302.59867   -1.1318444    2.7884208    13.167893    40.150726 
170252000    276.28839    310.77682    291.72344   -1.1092128    5.1971277    19.053371    40.161182 
170256000    273.35026    326.09179    278.19228   -2.1321835    4.8885744    47.899507     40.14512 
170260000    271.97735    301.80176    288.14206   -1.6383426    5.5074258    13.659702     40.13932 
170264000    270.69365    317.83379    284.28326    -3.330134    5.2450253    33.550535    40.139369 
170268000    264.10902    321.78409    262.93218   -2.8544933    6.6618315    58.851919    40.151753 
170272000    266.38086     310.5823    290.01536   -2.3696068     5.406063    20.566939    40.161922 
170276000    262.37171     309.6671    273.25834   -1.3988476    6.1590176    36.408761    40.160459 
170280000    281.55015    325.15633    300.46281   -2.0134264    4.1633449    24.693522    40.147458 
170284000    279.65868    316.41523    299.22612   -1.5043086    4.6796506    17.189107    40.148875 
170288000    276.49723    331.18069    302.32753   -2.2055722    3.3781436    28.853163    40.157404 
170292000    275.57954    320.84833     276.8144   -2.8429855    6.0726965    44.033929    40.165631 
170296000    260.53886    295.12128    276.34487   -1.0230597    4.3134536    18.776411    40.181796 
170300000    277.32655    326.85121    275.16782   -1.6188931    5.6211769    51.683386    40.183686 
170304000    270.68582    312.40498    261.95852   -1.8652088    6.0166118    50.446455    40.189122 
170308000    275.25713    338.53529     264.8984   -3.2428949    5.9438487    73.636889    40.179984 
170312000    271.22407     312.0084    275.33816  -0.76146365    5.1680514    36.670238    40.182327 
170316000    273.88524    308.17638     292.2026   -1.2079206    3.9873206    15.973777    40.168845 
170320000    274.99422    338.79828    280.59752    -2.418156     4.966603    58.200751    40.173557 
170324000     265.1778    305.52973     269.5292   -1.1213069    5.7817241    36.000533      40.1561 
170328000    274.56063    319.48319    289.61924   -2.0261191    4.4962115    29.863954    40.162622 
170332000    278.06211    328.48661    289.73352   -3.6242686    4.0540443    38.753095    40.160933 
170336000    269.98027    310.94292    271.73795   -3.2218644    5.2918358    39.204971    40.171515 
170340000     278.6163    317.07721    308.43994   -1.9855581    4.4881123    8.6372712    40.185437 
170344000    268.74046     330.3204    264.51081   -2.8028501    6.9625416    65.809589    40.195154 
170348000    272.12978    329.43137    277.14888   -2.0265427    4.8510097    52.282484    40.190307 
170352000    278.84365    331.35341     286.7094   -3.0757616     4.152315    44.644006    40.185954 
170356000    267.54312    320.42386    258.45202   -2.3362181    5.1729039    61.971838    40.187667 
170360000     271.7946    319.23847    290.49648   -1.4603886    4.3749658    28.741985     40.18844 
170364000    268.04889    322.46507    268.98985    -1.710366     4.659071    53.475222    40.193721 
170368000    278.49227    333.20768    286.12222    -2.891916    4.6815149    47.085459    40.195587 
170372000    265.29336    288.43461    294.41165  -0.16441285    4.9762017   -5.9770372    40.198862 
170376000    276.38216    320.69739    298.30393   0.11895451    4.5427438    22.393463    40.191367 
170380000    276.82575    339.49268    287.19398   -1.0457753    5.1180493    52.298692    40.198341 
170384000    273.21127    342.94011    282.66752  -0.44403031    4.7173736    60.272586    40.192855 
170388000    273.46605    323.63292    300.48177   0.38360913    3.9333924    23.151154    40.190604 
170392000     266.1114     306.8918    286.75516    1.3276788    3.8111677    20.136636    40.206364 
170396000    275.61094    322.41623     286.0428  -0.22937438     3.913219     36.37343    40.211458 
170400000    271.47067    319.64607    285.62233  -0.96795585    4.8861652    34.023741    40.203094 
170404000    272.24826    334.44715    270.08989   -1.1256786    6.8317197    64.357257    40.212221 
170408000    265.03417    312.39201    279.25652  -0.38804406    4.4544146    33.135492    40.193778 
170412000    274.05755    352.77571    273.68326   -2.1119935    4.9681729    79.092449    40.196089 
170416000    259.94307    286.41342    268.26393    1.0926728     5.150421    18.149489    40.197611 
170420000    267.21593    328.14283    272.14457  -0.42454654    4.9011601    55.998266    40.201258 
170424000    280.54243    342.73075    283.40088  -0.79241425    4.6532006    59.329872    40.196641 
170428000    269.77998    310.13871    293.01368  -0.12142134    4.0437002    17.125021    40.194771 
170432000    271.17651     318.6927     294.2542  -0.74230312    3.8843094    24.438499    40.195869 
170436000    269.12905    305.41555    294.99102   0.80759733    3.6294383    10.424529    40.175333 
170440000    272.24548    327.45668    288.28805  -0.59716336    4.0177143    39.168627    40.181552 
170444000    271.35673    312.43437    286.61038   -0.1663636    5.3137922    25.823998    40.185674 
170448000    280.19198    347.93585    273.89764   -2.4324249    5.7384311    74.038206    40.192979 
170452000    273.73383    346.50728     252.7167   -2.4987357    6.0304477    93.790575    40.198633 
170456000    275.63907    321.41487    284.71183   -2.5215941      4.14966    36.703036    40.203167 
170460000    282.89805    338.78063    306.02592   -2.7847014     3.079881    32.754705    40.205447 
170464000    274.09258    322.37399    284.92063   -1.5440014    4.0796832    37.453365    40.206622 
170468000    267.60723      299.572    282.06224  -0.37352679    4.5211834    17.509762    40.209459 
170472000    261.78588    295.19766     278.6347  -0.16540151      5.86429    16.562957    40.203123 
170476000    264.73051    315.27918    265.13923  -0.75416398    4.7807053    50.139955    40.205071 
170480000    272.79643    318.16261    286.13645  -0.54221272    4.3749816    32.026153    40.210417 
170484000    270.24287    345.45928    269.26694   -2.0833055    6.2796254    76.192335    40.207437 
170488000    277.24213    351.48873    266.86076   -3.7655509    6.3116705    84.627968    40.205886 
170492000    269.45401    293.03904    268.21795   0.11147664    6.0235584    24.821084     40.20125 
170496000    275.35377    311.56893    279.84501  -0.72541335    5.1670209    31.723914    40.198201 
170500000    273.84627    338.40684    266.80798   -2.3331038    5.0055979    71.598863    40.201989 
170504000    269.69544    311.19635    275.83177   0.12731259    4.4682652    35.364587    40.203338 
170508000    272.68862    324.29995     276.6539   -1.1962073    4.7314104    47.646055    40.205813 
170512000    269.30052    302.26621     274.6833  -0.87806182    5.4201305    27.582919    40.205616 
170516000    278.25553    332.13697    294.15832   -1.2813862    4.5346905    37.978648    40.210277 
170520000    264.14311    306.53888    270.08164  -0.22110513    5.5717427    36.457243    40.205013 
170524000    269.50764    305.50892    277.34165   0.25123885    6.1715624    28.167271    40.213727 
170528000    274.92107    320.63015    281.37961  -0.52882858    6.3624141    39.250541    40.206989 
170532000    270.69243    316.11301    289.91285  -0.21852609    5.8033534    26.200159    40.203651 
170536000    265.49815    305.28978    276.69598 -0.096608651    5.4087831    28.593799    40.210579 
170540000    275.06281     306.8532    292.65369  -0.95894188    5.3271081    14.199512    40.208923 
170544000    280.11791    362.43078    266.40519    -2.937684    6.6277028     96.02559     40.20102 
170548000    275.75761    340.93633    268.30349   -1.5428253    5.7952278    72.632844    40.204141 
170552000    276.95271    314.71834    277.06166   -2.5135901    6.3241112    37.656681    40.212859 
170556000    256.77971    317.85692    244.49767   -2.7513704    6.6454497    73.359251    40.217452 
170560000    277.56006    318.10198    280.51958  -0.63152533    5.3035878    37.582399    40.215741 
170564000     277.0957    336.25501    278.42812   -2.2723696     5.979603    57.826884    40.217343 
170568000    266.69529    303.70714    271.64738   -1.2409017     6.821745    32.059763    40.219938 
170572000    270.65802    311.38764     282.6742   -1.0674367    5.1437046    28.713432    40.214765 
170576000    278.55945    316.66329     289.5426   -1.8488754     5.631998    27.120693    40.214257 
170580000    270.29699    304.13323    269.18025   -1.3352387    5.7610689    34.952982    40.215262 
170584000    274.41659    316.97554    289.42285  0.059568793    5.2240222    27.552693    40.198035 
170588000     285.0227    352.99628    272.67584   -2.9681533    5.7505264    80.320449    40.196347 
170592000    270.52077    323.37605    271.17054   -2.1850751     6.320436    52.205508    40.197721 
170596000    269.07052    309.87952    276.96582   -1.3216289    4.5849436    32.913707    40.197507 
170600000    280.66122    336.32114    291.33425    -2.381427    4.9477234    44.986887    40.208375 
170604000    271.63763    318.43311    289.76618  -0.98465099    4.6227824    28.666933    40.195021 
170608000    275.21891    322.34231    282.40621   -1.9988596    5.6911283      39.9361    40.207562 
170612000    272.93535    326.20753     292.2527  -0.79685432    5.6458476    33.954835     40.20037 
170616000    266.97662    304.46949    283.41991    0.1224914      6.54516    21.049583    40.184992 
170620000    275.18966    328.70579     298.9337   -2.3912889    5.3190466    29.772088    40.179364 
170624000    278.85726    336.96452    301.66111   -2.3401318    5.3129961     35.30341    40.182142 
170628000    272.99995    323.32894    293.34728   -1.6541196    5.3101489    29.981663    40.180254 
170632000    275.66626     334.1329     289.1722   -2.5552822    4.9156731    44.960696    40.181396 
170636000    266.69049    307.46357     285.1465  -0.99849649    6.4644428    22.317065    40.173355 
170640000    266.30744     304.4649    262.90828  -0.45875107    6.3038231    41.556619    40.181352 
170644000    279.47712    334.94472     277.6167   -2.4759856    5.7489269    57.328026    40.187971 
170648000    278.02684    323.54223    289.72707    -2.203774    5.3031922    33.815151    40.196516 
170652000    269.85039    319.27327    290.37736   -1.4854743    5.2113628    28.895901    40.199409 
170656000     266.4665    304.09649    268.52483  -0.57328428    6.3104838    35.571666     40.20724 
170660000    275.50505    337.43394    271.94172    -1.881999    5.1931007    65.492223    40.213052 
170664000    273.49575    332.64743    270.51473   -2.2538212    4.8822443    62.132695    40.211838 
170668000    270.62664    307.43044    286.26945   -2.0934022    4.7099441    21.160991    40.212117 
170672000    282.90915    343.76979    283.50948   -3.4758429     5.160961    60.260306    40.202726 
170676000    284.71855    317.06872    288.97655   -2.2394105     5.039977    28.092168    40.197727 
170680000    280.22594    328.12445    278.36838   -2.1865868    5.7706136    49.756068    40.198651 
170684000    270.68363    327.35003    270.41473   -2.4557679    6.4833972    56.935305    40.213307 
170688000    279.68969    327.58736    295.18013   -2.4938246    3.4699226    32.407232    40.212545 
170692000     276.5647    323.72235    293.66408   -1.8492908    4.3994095    30.058265    40.214716 
170696000    279.50842    343.58821     265.3439    -2.278041    6.3322826    78.244311     40.22103 
170700000    280.82657    325.89288    290.98174   -1.1680854    5.0228423    34.911132    40.222456 
170704000     268.2339    311.20787    275.04168   -1.7979583    5.6894222    36.166189    40.219412 
170708000    268.99911    325.53078    261.28547   -2.0359025    6.0739312    64.245305    40.214078 
170712000    285.19202    345.06421    290.50543   -3.4617112    5.0480616    54.558777     40.21906 
170716000    275.65942    307.70279    294.07478   -1.3574666    5.4325489    13.628009    40.213409 
170720000    284.90255    327.79933    282.60287   -2.7385543    5.7073447    45.196454    40.217443 
170724000    277.87143    324.61685      285.203    -3.213669    4.4211352    39.413846    40.223443 
170728000    266.31503    294.99717     271.0006   -1.0941014    4.8268168    23.996568    40.218761 
170732000    282.47764    317.15827    305.47539   -2.5796526    3.5009497    11.682882    40.208318 
170736000    283.32725    345.52696    274.00423   -3.4051847    6.2116111    71.522728    40.209419 
170740000    274.72615    312.05148    273.16129   -3.3210893    6.7143902    38.890193    40.206379 
170744000     279.4789    305.39011    297.75824   -2.1083415    4.6695477    7.6318673    40.200032 
170748000    273.44716    324.65861     276.5455   -3.1668402    5.4865773    48.113113    40.206215 
170752000    273.72348     307.9737    283.30699    -2.043667    5.2397297    24.666709     40.20746 
170756000    278.54901     325.2055    293.40443   -2.3228669    4.5982776    31.801065    40.202589 
170760000    269.46437    317.65051    271.48308   -2.6254586     5.835391    46.167424    40.206553 
170764000    282.33804    329.60492     278.1679   -1.9694361    5.1680158    51.437016    40.209672 
170768000    273.69324    325.36057    284.90774   -1.6515336    4.7241157    40.452831    40.221178 
170772000    271.07141     326.9982    272.01439   -1.3665226    5.8950252    54.983807    40.226253 
170776000    276.27019    328.45957    276.24847   -2.5439699      5.94397    52.211101    40.229145 
170780000    283.34011    336.52603    265.35303   -4.2181775    5.9198088    71.172997     40.22761 
170784000    279.55333    322.58192    290.96598    -3.594418    4.5383927    31.615942    40.221297 
170788000    277.56784    345.84263    248.94575   -4.3554156    6.3162212    96.896886     40.22446 
170792000     279.8546    313.92597    284.35704   -3.4247333    5.4801743    29.568931    40.227149 
170796000    265.06656    305.09764    265.76466   -3.9618512    6.0926956    39.332981    40.219725 
170800000    276.72129    333.95593    262.92091    -4.709657    6.1800675    71.035016     40.22678 
170804000    277.97182    326.31906    280.77211   -4.0446732    5.3035486    45.546954    40.228951 
170808000     268.6237    300.60206    273.30336   -3.1210029    4.6691841    27.298707    40.224418 
170812000    269.72765    307.45622    269.88657    -3.915393    5.4097965    37.569646     40.23367 
170816000    284.30798    346.27984    264.15459    -4.606986    6.4564052    82.125249    40.236213 
170820000    278.38091    306.78529    278.22958   -2.7200655    5.3836667     28.55571     40.24157 
170824000    276.45259    309.06207      284.213   -3.4330418    4.9940891    24.849066     40.24223 
170828000    283.64465    308.65663    289.16958    -2.550367     4.896886    19.487052    40.240006 
170832000    265.69824    305.93273    265.91247   -3.6837019    5.5967088    40.020256    40.249091 
170836000    290.10965    339.00512    288.06777    -4.370331    4.8720869    50.937356    40.247802 
170840000    278.97853    335.96889    260.83664   -5.1199597    6.2801807    75.132251    40.244374 
170844000    273.24818    324.68402    291.73041   -3.8160585    4.6143826     32.95361    40.253029 
170848000    283.44203    324.96226    289.25132   -3.1900116     4.780976    35.710937    40.251907 
170852000    278.94413    327.75977    275.42541   -3.4165478    4.7207448    52.334355    40.255521 
170856000    278.18405    334.76307    274.48436    -4.312612    5.0791476    60.278709    40.271607 
170860000    279.02006    317.14966    282.37566   -3.4919719    5.0468179    34.774004    40.272854 
170864000    281.10034    328.97632    289.04974   -3.4402927    4.0006124    39.926585    40.277052 
170868000    287.14842    320.77938    289.02269   -5.1274994     4.485893    31.756688    40.266482 
170872000    267.60745    315.80937    266.65152   -3.8907021    4.5310522    49.157848    40.261318 
170876000    275.97012    318.34801    274.17254    -3.745053    5.6427497    44.175465    40.261589 
170880000     279.4668     325.8414    287.81524   -4.2500727    4.8278131    38.026166    40.264418 
170884000    283.97493    325.88485    308.45719   -3.4076758    3.6736601    17.427657    40.259373 
170888000    284.55672    314.30465    299.19012   -4.0822638    3.9848318    15.114532     40.26414 
170892000    276.71692    326.77622    278.58113    -4.220425    5.5786815    48.195087    40.266974 
170896000    274.09015    302.45117    262.16319   -2.4436423     5.280591    40.287987    40.262846 
170900000    275.96797    317.44296    268.02237    -1.968456    5.2797644    49.420589    40.259213 
170904000    274.26136    324.53307     277.5509   -4.4938724    5.4488643    46.982166    40.264232 
170908000    271.78142    329.07753    279.05254   -5.0906394    5.0721202    50.024995    40.264452 
170912000    275.03287    324.09592    265.88063   -4.1122103    5.0975339    58.215284     40.27283 
170916000    284.30025    331.55728    280.61578   -3.0955718    5.0826512    50.941507    40.274288 
170920000    274.20551    336.84554    258.42629   -3.5534103    6.8753105    78.419253    40.279588 
170924000    283.17048    337.88535    277.55284   -3.7798486    5.2481181    60.332518    40.298813 
170928000    283.72289     345.4989    274.12288   -4.4364894    5.0228286    71.376024    40.294684 
170932000    277.16688    307.44683    270.84317   -2.3864428    6.2405208    36.603664    40.291643 
170936000    275.67077    318.71652    261.11693   -2.9642626    5.1755713    57.599591    40.284699 
170940000    273.93518    319.75599    274.84437   -3.0834722    5.6663788    44.911626    40.277971 
170944000    271.55799    306.56316    269.29712     -2.89324    7.1700724     37.26604    40.274614 
170948000    274.77555    318.74912    265.16295   -4.0804449    6.0960699    53.586169    40.272148 
170952000    280.27602    304.91177     306.6086   -4.8061517    3.2050617   -1.6968381    40.273149 
170956000    279.45784    318.18335    284.70101   -3.7171749    6.0160132    33.482348    40.267069 
170960000    278.16408    323.38376     280.6313   -4.5317966    5.4324212    42.752462    40.274296 
170964000    286.51337    333.78062    295.42931   -3.9194834    4.6006017    38.351313    40.267651 
170968000    278.10725    317.41095    292.47349   -4.6174671    5.3969177    24.937467    40.260935 
170972000    284.44801    341.68032    283.76142   -5.2982168    5.7200142    57.918895    40.262357 
170976000    282.24845    340.19251    282.15904   -4.9743914    5.1168284    58.033471    40.255427 
170980000    270.81496    322.86566     250.0804   -3.0905217    6.9124714    72.785253    40.260271 
170984000    266.12074    329.92005    266.12801   -3.2074449    6.4664178     63.79204    40.253954 
170988000    268.88344    300.86006    292.15203   -1.6813962    6.3649618    8.7080306    40.258008 
170992000    276.74967    338.77818    271.12448   -4.2486386     6.118195    67.653697     40.26237 
[...]
184112000    269.26031    328.05575    272.87562   -27.819119    31.536754    55.180132    40.169212 
184116000     272.6365    328.93753    268.00826    -26.92518    31.528403    60.929266    40.168795 
184120000    270.90938    326.61765     260.1869   -27.187909    32.468052    66.430754    40.167262 
184124000    280.21226    354.67935    284.08068   -29.084482    31.398354    70.598669    40.167132 
184128000     272.9827    319.15579     287.6895    -27.49041    31.883849    31.466291    40.168047 
184132000    271.98625    337.33607    273.11706   -28.656436    31.874658    64.219011    40.168382 
184136000    279.70885    343.27241    297.39382     -28.1129    31.056813    45.878596    40.168356 
184140000    267.87917    302.15955    289.13235   -25.711811        31.75    13.027204    40.167242 
184144000    272.42419    307.33262     287.7738   -27.289709    33.028721    19.558822    40.167588 
184148000    265.02274    315.16943    258.98747   -26.385919    33.311873    56.181963    40.168412 
184152000      264.439    311.19734     254.2206   -28.508221    33.148331    56.976745    40.168931 
184156000    269.92751    333.91402    270.94425   -28.590894     32.37098    62.969767    40.169427 
184160000    279.87522    332.66186    274.07645   -27.724789    32.322216    58.585406    40.168824 
184164000    274.20421    328.29976    279.92661   -28.162673    30.816456    48.373159    40.170164 
184168000    265.68724    321.81629    266.04351   -27.103661    31.938456     55.77278    40.168586 
184172000    267.00251     315.4715    268.26775   -27.541631    31.900084    47.203749    40.167426 
184176000    272.02089    317.23572    294.83237   -26.701272    30.833021    22.403355     40.16744 
184180000    271.42026    312.55899    290.36428   -26.969354    31.975667    22.194714    40.166178 
184184000    282.88574    355.42193    287.85338    -27.99711    30.612654    67.568544    40.165147 
184188000    275.69412    342.45816    272.73541   -29.331801    32.600648    69.722749    40.165685 
184192000    278.47832    321.65604    302.25641   -27.617279    30.881467    19.399631    40.166533 
184196000    270.64282    325.19217     275.4559   -26.837083    32.336542    49.736279     40.16644 
184200000    272.24435    328.54996    271.42433   -28.877828    32.145031    57.125628    40.168345 
184204000    274.36558    323.96889    276.38547   -27.173638    31.527489    47.583427    40.168195 
184208000    268.83139    320.69282    275.28745   -28.017943    31.314091    45.405375    40.167291 
184212000    272.99854    337.34017    284.27269   -27.915084    30.909504    53.067483    40.167093 
184216000    270.41433    324.81181    257.04311   -27.112197    32.833571    67.768702    40.168834 
184220000    266.91124    317.01704    270.77601   -27.189571    31.212126    46.241038     40.16762 
184224000    272.47841    337.02455    278.38215   -28.722885    31.563453    58.642401    40.169331 
184228000    274.04026     325.3282    275.48251   -28.745063    31.434662    49.845687    40.168087 
184232000    276.33369     325.8321     286.3551    -27.59766    31.618989    39.477006    40.168196 
184236000    272.04543    330.21016    272.71954   -27.982342     32.72982    57.490621    40.168601 
184240000     276.7252    341.07757    285.81744   -27.905921    30.173917    55.260131    40.169086 
184244000     262.2957    326.88363    253.85607   -27.896863    31.207264    73.027558    40.168997 
184248000    263.92256    305.06425    260.30995   -27.890932    32.098801    44.754293    40.168822 
184252000    273.18526    328.78057    270.91782   -28.393049    32.508359    57.862755    40.170461 
184256000    272.53634     316.7062    286.81848   -26.830096    32.262495    29.887717    40.169912 
184260000    272.14516    328.61138    273.02794   -28.069443    31.945747    55.583441    40.169274 
184264000    281.55332    343.94066    299.49452   -27.620629    30.999385    44.446137    40.168238 
184268000    274.96645    321.07187    278.82444    -27.14075    32.592832    42.247424    40.168573 
184272000     270.9122      309.074    302.92496   -27.061695    31.544718    6.1490373    40.168743 
184276000    267.47426    331.48516    280.45221    -27.12815    32.951113    51.032951    40.168757 
184280000    271.87895    351.91999     266.9883   -29.384298    32.721017     84.93169    40.169891 
184284000    269.73238    327.75982    266.00163   -28.374402    33.643631    61.758188    40.170313 
184288000    260.18574     314.0328    262.58399   -26.361275    34.135169    51.448805    40.170653 
184292000    260.73859    317.32276    261.47631   -28.392722    33.832859     55.84645    40.170222 
184296000    268.94945     324.1106    284.50519   -28.665556    32.035448    39.605409    40.170577 
184300000    260.73595    329.99062    256.82416   -28.674592    33.590027    73.166461    40.170195 
184304000    260.96484    310.64962    273.08747   -26.314269     32.74682    37.562146     40.17109 
184308000    260.04589    300.08124    270.57102   -26.988013    32.708841    29.510224    40.170053 
184312000     265.9376    311.24613    269.55896   -27.050178    34.115099    41.687173    40.169617 
184316000    261.70924    295.93603    280.46328   -26.811054    33.349171    15.472752    40.170176 
184320000    262.62959    297.63671    295.67916   -26.575447    33.518112    1.9575453    40.169589 
184324000    275.19335    350.07405    281.12379   -29.942845    33.293452     68.95026     40.16952 
184328000    277.09868    340.85128    290.04895   -27.952969    33.046934    50.802336    40.170068 
184332000    266.33004    313.59499     299.5807   -28.302674    32.886643     14.01429    40.170409 
184336000    268.11305    319.47507    278.20012    -27.76378     33.22598    41.274948    40.170127 
184340000     272.5221    321.37745    291.33169   -27.364257    32.737376    30.045756    40.169939 
184344000    275.74387    340.94414    283.90285   -28.221485    33.223562    57.041293    40.170027 
184348000     271.4142    322.00698     279.1008   -28.309361    33.434639    42.906182    40.169718 
184352000      269.637    302.88871    297.46924   -26.065122    31.668363    5.4194659    40.170206 
184356000    286.48051    335.78312    309.51114   -29.198194    29.813395    26.271983    40.169229 
184360000    273.27403    325.06695    279.59161   -27.872753    32.798526    45.475339    40.169675 
184364000    277.30233    325.63942    298.91514   -27.783459    31.212775    26.724281    40.168848 
184368000    274.64839    326.79164    296.39819   -27.878101    32.794071    30.393457    40.168442 
184372000    271.78294    312.35746    290.05567   -27.548283     32.29189    22.301788    40.167486 
184376000    264.27898    334.68363    269.71331   -28.152524     34.47703    64.970313    40.168071 
184380000    265.79127    307.52111      282.546   -27.857345    33.437769    24.975109    40.167857 
184384000     262.9072    327.25443     252.3972   -27.602936    35.669445    74.857227     40.16824 
184388000     270.6853    317.94538    274.33029   -27.940504    33.257419    43.615092    40.168554 
184392000    272.21957    315.26751    285.30931   -28.740971    31.846908    29.958205    40.168131 
184396000    274.66205    321.37838    288.43387   -28.609836    31.970953    32.944512    40.166545 
184400000    275.00187    322.23883    279.64697   -28.464436     31.96233    42.591866    40.167039 
184404000    269.65868    323.59363    280.26985      -27.119    33.150576    43.323779    40.167259 
184408000    273.55893    313.71125    297.96382   -26.788879    32.209556    15.747425    40.167092 
184412000    272.39316    311.37812    296.90197    -26.63219    32.289118    14.476158    40.166977 
184416000    271.93037    336.96745    278.18468   -28.332927    33.082407    58.782769    40.167565 
184420000    265.18848    322.48816     267.5499    -27.63227    32.303496    54.938261    40.169226 
184424000    266.44492    309.15607    284.38587   -27.319229    32.327069    24.770204    40.169042 
184428000    276.47354    321.55596      302.307   -28.505603     31.68443    19.248966     40.16863 
184432000    262.84425    304.77695     275.6228   -27.314373    32.806242    29.154149    40.166957 
184436000    265.73291    286.35341    292.46155   -26.053914    31.820084   -6.1081407    40.165693 
184440000    267.64151    329.10405    274.70146   -28.276934    32.704546     54.40259    40.165869 
184444000    268.11097    302.78208    290.81502   -27.153912    32.770322    11.967067    40.165794 
184448000    268.47092    318.00251    286.56415   -26.801019    32.979054    31.438355    40.164678 
184452000    272.29211    336.35045    266.85405   -28.323021    33.842454    69.496403    40.163649 
184456000    265.60491    312.31228    289.37635   -26.815895    32.564613     22.93593    40.163061 
184460000    264.68562    324.56076    266.69205   -28.192625    33.450915     57.86871    40.162595 
184464000    278.71728    332.92379    277.98942    -28.47974    33.215306    54.934367    40.163491 
184468000    267.10609    321.07276    288.38877   -27.360906    33.283649     32.68399    40.162891 
184472000    274.74663    337.01637    270.36155   -29.090498     34.15213    66.654825    40.162668 
184476000    259.68788     308.7247    259.97939   -26.292663    34.533706    48.745312    40.162171 
184480000    262.74049    311.78288     257.9314   -27.727162    34.986095    53.851473    40.161492 
184484000    268.54501    342.27888    272.85385   -29.589285    33.951955    69.425034    40.161684 
184488000    265.75726    319.28043    270.99118   -27.722549    32.856031    48.289243    40.162011 
184492000    266.42741    306.57194    277.19722   -26.927411    33.364778    29.374726    40.161872 
184496000    268.37275    322.16581    276.85141   -28.136413    32.443099    45.314404     40.16185 
184500000    270.31979    308.43396    279.41475   -27.033499    33.101995    29.019211    40.162072 
184504000    275.37377    319.24089    292.44157   -27.506239    31.863423    26.799324    40.162701 
184508000    269.42575    300.11317    297.02075   -27.108201    32.542073    3.0924207    40.162437 
184512000    266.94023    300.24399    292.38426   -26.386397    31.322761     7.859727    40.163072 
184516000    269.33238    336.60783     269.7019   -28.598417    33.543883    66.905933     40.16243 
184520000    257.87964    283.92128    266.12146   -25.081919    33.998193    17.799811    40.162263 
184524000    266.42091    310.49699    270.68892   -27.106579    32.648758    39.808067    40.161973 
184528000     263.7783     313.3488    257.88842   -28.675437    34.053873    55.460384     40.16258 
184532000    272.53097    330.80371    269.79006   -28.779854    34.031414    61.013647    40.162073 
184536000    274.19158    302.75023    311.47764   -28.487212    32.141087   -8.7274163    40.162044 
184540000    274.05462    321.35399    283.21338   -28.465386    32.694506      38.1406    40.162799 
184544000    268.23503    317.90222    271.66827   -28.535592    34.442383    46.233946    40.162928 
184548000    271.50927    334.72935    272.13706    -29.30861     34.10515     62.59229    40.162875 
184552000    271.79041    344.40725    272.31027   -29.506216    33.351394    72.096974    40.162859 
184556000    264.99598    313.66584    273.04224   -28.990919    33.614886    40.623602    40.161942 
184560000     271.8465    322.42026    281.08212   -28.729515    33.891311    41.338136    40.162384 
184564000    268.42318      324.842    263.70455   -29.546927    34.208754    61.137446     40.16252 
184568000    275.05582    345.74539    273.76554   -29.313132     33.14877    71.979841    40.162535 
184572000       264.77    310.66387    282.32449   -28.179043    33.483202    28.339385    40.161505 
184576000    264.00326    334.57017    248.34587    -29.98568    33.312839    86.224298    40.161755 
184580000    265.11196    295.00439    288.10753   -27.324185    32.057565    6.8968657    40.161048 
184584000     267.4963    328.51664    264.12023   -28.044944    32.799619     64.39641    40.161853 
184588000    277.06429    343.91394    275.51693   -29.014902    32.427803    68.397017    40.161787 
184592000    264.68755    315.14873    249.63597   -27.854067    34.354896    65.512758    40.162661 
184596000    256.58387    298.29138    254.86596   -27.356682    33.685086    43.425421    40.163601 
184600000    262.57845    320.16405    266.63624   -28.851727    34.309991    53.527808    40.164399 
184604000    266.35056    321.25397    259.88608   -29.701041    34.151184    61.367888    40.163761 
184608000    268.97397    303.03852    269.91419   -28.225725    32.534298    33.124326    40.164485 
184612000    278.93385    351.87206    290.89184   -29.437569    31.612898    60.980224    40.164457 
184616000    267.62098    327.14446    279.33981   -28.027431    33.333292     47.80465    40.163757 
184620000    272.15059    317.89495    285.86886   -27.929979    32.096754    32.026085    40.163344 
184624000    275.93854    350.13895    285.81848   -30.126859    33.034212    64.320477    40.163366 
184628000    276.53375    305.83799    296.81281   -27.715185    32.643144    9.0251801    40.163241 
184632000    264.48294    312.26662    288.16715   -28.660138    32.538886     24.09947    40.164216 
184636000    261.73267    319.67629    269.69027    -29.03267    34.015005    49.986022    40.164524 
184640000    282.93217    327.75742    303.21594    -29.80449    31.581997    24.541475    40.163659 
184644000    266.80067    318.04808    271.09998    -29.22918    32.986829    46.948098    40.163376 
184648000    274.48186    319.77679     297.1666   -29.731996    32.205913    22.610191    40.163023 
184652000    273.57764    329.81806    273.44223   -29.306974    33.568722    56.375837    40.162252 
184656000    270.69606    304.45562    281.62439   -27.892006    31.791392    22.831232    40.162056 
184660000    263.71687    301.70205    268.50752   -28.299994    33.347833    33.194532    40.162687 
184664000      281.272    315.35813    290.88437   -28.937721     32.02056    24.473763    40.163806 
184668000    268.97904    347.84653    275.99387   -31.559424    33.025521    71.852655    40.163598 
184672000    262.66257    294.90989    281.03844   -28.473928    31.900584    13.871445    40.162933 
184676000    277.40485    319.80933    282.27463   -29.803158    32.092027    37.534691     40.16255 
184680000    270.07838    320.61143    270.13681   -29.046174    32.381644    50.474614     40.16178 
184684000    268.70839    308.31923    286.97569   -28.797958    30.973971    21.343549    40.162717 
184688000    265.81818    298.69343    296.48918     -28.1606    32.305105     2.204248    40.161654 
184692000     286.3812    352.87795    299.14778   -29.925757    32.116212    53.730171    40.161986 
184696000    278.66002    310.38244    310.32268   -28.512247    32.041907  0.059756593    40.161864 
184700000    284.72097    361.28373    277.93989   -31.080963     33.18008     83.34384    40.161988 
184704000    269.41676    301.79246    281.79778   -28.138402    31.886324    19.994685    40.160846 
184708000    266.34033    317.25827    253.98271   -28.795069    33.200398    63.275557    40.161497 
184712000    267.58422    334.66925    261.47104   -29.113691    32.817699    73.198211    40.162598 
184716000    272.84736      310.144    289.09053   -28.760622    31.823422    21.053468    40.163069 
184720000    269.56889    301.41488     282.6849   -28.424466    32.727804     18.72998    40.162135 
184724000    279.33214    320.94256    284.79341   -30.210056    32.907815    36.149158    40.161615 
184728000     276.4574    322.88731    299.46466   -30.052028    31.393648    23.422647    40.162639 
184732000    273.29416    327.84459    266.51012   -31.271838    33.325002    61.334469    40.162971 
184736000     264.8834    316.25138    277.82406   -29.492549    33.520063    38.427324    40.162235 
184740000    276.36203    311.14747     297.8342   -30.124444    33.013998    13.313268    40.162586 
184744000    268.30165    297.83221    297.25682   -29.351512    32.780817    0.5753858    40.162737 
184748000    275.19114    341.49007    277.97227   -31.695606    33.482081    63.517799    40.162076 
184752000    269.62192    308.96141    271.33998   -29.540967    34.466328    37.621429    40.162192 
184756000    274.82307    319.88639    282.38666   -31.458985    33.146656    37.499725    40.162878 
184760000    261.99005    291.95932    276.76091   -28.937053    33.338561    15.198409    40.162853 
184764000     275.0658    317.36309    288.42736   -30.455778    32.124966     28.93573    40.163052 
184768000    272.51385     314.3816    277.26669   -29.610048    33.885623    37.114913    40.163395 
184772000    262.76306    297.70422    280.39814   -28.698655    32.856772     17.30608    40.163326 
184776000    272.20797    329.11107    265.04476   -31.158774    34.380587    64.066315    40.163402 
184780000    272.73216    322.44035    281.93052   -30.451102    31.372645    40.509836    40.163473 
184784000    279.56173    320.90856    291.29037   -30.138281    32.073685     29.61819    40.163619 
184788000    281.28041    321.01267    298.07766   -29.594071    32.136458    22.935012    40.163694 
184792000    272.27413    314.50464    302.43651   -29.780241    31.841591    12.068136    40.164305 
184796000    272.01842    307.90904    310.30881    -28.68896    31.302724   -2.3997727    40.163665 
184800000    271.62678    304.38312    290.74024    -29.90173    32.187774    13.642886    40.162394 
184801000     265.9957     300.8383     275.3382   -29.865793    33.284123      25.5001    40.162394 
Loop time of 23479.2 on 4 procs for 16000000 steps with 1498 atoms

Performance: 14.719 ns/day, 1.630 hours/ns, 681.455 timesteps/s
99.6% CPU use with 4 MPI tasks x no OpenMP threads

MPI task timing breakdown:
Section |  min time  |  avg time  |  max time  |%varavg| %total
---------------------------------------------------------------
Pair    | 11719      | 16168      | 20765      |3429.9 | 68.86
Bond    | 71.999     | 113.84     | 151.86     | 354.7 |  0.48
Neigh   | 129.94     | 129.96     | 130        |   0.2 |  0.55
Comm    | 324.27     | 4611.4     | 9027.4     |6292.8 | 19.64
Output  | 9.1068     | 9.1977     | 9.4681     |   5.1 |  0.04
Modify  | 1259.6     | 1882.1     | 2544.9     |1071.0 |  8.02
Other   |            | 564.6      |            |       |  2.40

Nlocal:    374.5 ave 714 max 35 min
Histogram: 2 0 0 0 0 0 0 0 0 2
Nghost:    2376.5 ave 4269 max 496 min
Histogram: 2 0 0 0 0 0 0 0 0 2
Neighs:    13049.2 ave 25870 max 313 min
Histogram: 2 0 0 0 0 0 0 0 0 2

Total # of neighbors = 52197
Ave neighs/atom = 34.8445
Ave special neighs/atom = 0.518024
Neighbor list builds = 28752
Dangerous builds = 0

write_restart FINALCONFIG
WARNING: Using a manybody potential with bonds/angles/dihedrals and special_bond exclusions (../pair.cpp:218)
Neighbor list info ...
  update every 1 steps, delay 0 steps, check yes
  max neighbors/atom: 2000, page size: 100000
  master list distance cutoff = 16
  ghost atom cutoff = 16
  binsize = 8, bins = 3 3 23
  4 neighbor lists, perpetual/occasional/extra = 4 0 0
  (1) pair lj/cut, perpetual, skip from (4)
      attributes: half, newton on
      pair build: skip
      stencil: none
      bin: none
  (2) pair morse, perpetual, skip from (4)
      attributes: half, newton on
      pair build: skip
      stencil: none
      bin: none
  (3) pair eam, perpetual, skip from (4)
      attributes: half, newton on
      pair build: skip
      stencil: none
      bin: none
  (4) neighbor class addition, perpetual
      attributes: half, newton on
      pair build: half/bin/newton
      stencil: half/bin/3d/newton
      bin: standard

#and everyone lived happily ever after, THE END
Total wall time: 6:50:21
