LAMMPS (16 Mar 2018)
#lammps script for united atom polymer simulation (full-scale run)

# 1. INITIALIZATION
#allows pair, bond, bending and dihedral interactions
atom_style molecular

  # periodic (video game) boundaries in all cartesian directions
boundary p p s

  # uses real units (instead of units based on pair potential parameters).  List of units used in manual
units metal

###########
# 2. ATOM DEFINITION
##########

   ##
   # Read in data from starting configuration file
   ##

#read_data lammps-AT-config

 #use to restart
read_restart RESTART
  orthogonal box = (0 0 -29.1214) to (20 20 152.979)
  1 by 1 by 4 MPI processor grid
  1498 atoms
  197 bonds
  96 angles
  95 dihedrals
  2 = max # of 1-2 neighbors
  2 = max # of 1-3 neighbors
  4 = max # of 1-4 neighbors
  6 = max # of special neighbors

   ##
   # Specify the nature of the bond interactions
   ##

bond_style harmonic
bond_coeff 1 19.51 1.54
bond_coeff 2 22.45 1.82
bond_coeff 3 10000.0 2.0
special_bonds lj 0.0 0.0 0.0 angle no dihedral no

angle_style harmonic
angle_coeff 1 2.683 114.00
angle_coeff 2 2.683 114.40

dihedral_style opls
dihedral_coeff * 0.06071 -0.011743 0.1363628 0.0

mass  1   14.00
mass  2   32.06
mass  3  196.97
mass  4  196.97


pair_style hybrid lj/cut 14.0 morse 14.0 eam
pair_coeff 1 1 lj/cut 0.00395 3.95 14.0
pair_coeff 2 2 lj/cut 0.01594 3.62 14.0
pair_coeff 3 3 eam Au_u3.eam
Reading potential file Au_u3.eam with DATE: 2007-06-11
pair_coeff 4 4 eam Au_u3.eam
pair_coeff 1 2 lj/cut 0.0000 3.785 14.0
pair_coeff 1 3 lj/cut 0.00258 3.44 14.0
pair_coeff 1 4 lj/cut 0.00 3.44 14.0
pair_coeff 2 3 morse 0.879 1.47 2.7 14.0
pair_coeff 2 4 morse 0.000 1.47 2.7 14.0
pair_coeff 3 4 lj/cut 0.00 2.934 14.0


group freeze type 4
100 atoms in group freeze
fix startend freeze setforce 0.0 0.0 0.0



################
# 3.  Simulation Settings
###############

neighbor        2.0 bin
neigh_modify    every 1 delay 0 check yes



# Define some variables
variable Lx          equal xhi-xlo   # Ang
variable Ly          equal yhi-ylo   # Ang
variable Lz          equal zhi-zlo   # Ang

variable dz          equal ${Lz}/30  # Ang
variable dz          equal 182.100820164041/30  

variable zzlo        equal zlo  # Ang
variable zzhi        equal zhi  # Ang
variable vol         equal ${Lx}*${Ly}*${Lz}  # Ang^3
variable vol         equal 20*${Ly}*${Lz}  
variable vol         equal 20*20*${Lz}  
variable vol         equal 20*20*182.100820164041  
variable TEMP        equal 300.00 # K
variable TThi        equal 320.00 # K
variable TTlo        equal 280.00 # K
variable dt          equal 0.00025 # ps

timestep     ${dt}
timestep     0.00025

variable zlo1      equal -26.0
variable zlo2      equal -11.0
variable zhi1      equal 135.0
variable zhi2      equal 150.0

# heat layers

region          hot  block  INF INF INF INF ${zlo1} ${zlo2}
region          hot  block  INF INF INF INF -26 ${zlo2}
region          hot  block  INF INF INF INF -26 -11
region          cold block INF INF INF INF ${zhi1} ${zhi2}
region          cold block INF INF INF INF 135 ${zhi2}
region          cold block INF INF INF INF 135 150
compute         Thot all temp/region hot
compute         Tcold all temp/region cold


# Second Equilibration
fix             1 all nve
fix             hot all langevin ${TThi} ${TThi}  0.005 59804  tally yes
fix             hot all langevin 320 ${TThi}  0.005 59804  tally yes
fix             hot all langevin 320 320  0.005 59804  tally yes
fix             cold all langevin ${TTlo} ${TTlo} 0.005 287859 tally yes
fix             cold all langevin 280 ${TTlo} 0.005 287859 tally yes
fix             cold all langevin 280 280 0.005 287859 tally yes
fix_modify      hot temp Thot
fix_modify      cold temp Tcold

variable        tdiff equal c_Thot-c_Tcold
thermo_style    custom step c_Thot c_Tcold f_hot f_cold v_tdiff
thermo            4000
run             800000
WARNING: Using a manybody potential with bonds/angles/dihedrals and special_bond exclusions (../pair.cpp:218)
Unused restart file peratom fix info:
  fix style: STORE, fix ID: layers_COMPUTE_STORE
Neighbor list info ...
  update every 1 steps, delay 0 steps, check yes
  max neighbors/atom: 2000, page size: 100000
  master list distance cutoff = 16
  ghost atom cutoff = 16
  binsize = 8, bins = 3 3 23
  4 neighbor lists, perpetual/occasional/extra = 4 0 0
  (1) pair lj/cut, perpetual, skip from (4)
      attributes: half, newton on
      pair build: skip
      stencil: none
      bin: none
  (2) pair morse, perpetual, skip from (4)
      attributes: half, newton on
      pair build: skip
      stencil: none
      bin: none
  (3) pair eam, perpetual, skip from (4)
      attributes: half, newton on
      pair build: skip
      stencil: none
      bin: none
  (4) neighbor class addition, perpetual
      attributes: half, newton on
      pair build: half/bin/newton
      stencil: half/bin/3d/newton
      bin: standard
Per MPI rank memory allocation (min/avg/max) = 10.93 | 11.62 | 12.31 Mbytes
Step c_Thot c_Tcold f_hot f_cold v_tdiff 
50401000    306.43786    300.11432           -0           -0    6.3235393 
50404000    337.36703     259.0447   -1.4885051    2.4596093    78.322322 
50408000    336.27353    261.41172   -1.0707402    1.8623125    74.861803 
50412000    322.15139    286.30621   -1.5732894   0.75361255    35.845178 
50416000      317.596    280.08095  -0.67046296   0.69466927    37.515045 
50420000    306.02289    309.20217  -0.74361206  -0.82051782   -3.1792803 
50424000    327.97959    269.42614   -1.7649237   0.69999294    58.553453 
50428000    326.13281    291.64557   -2.1360704   0.42085196    34.487238 
50432000    337.99365    286.14542   -3.5624826    1.0490979    51.848231 
50436000      340.758    272.24805   -2.0341519    1.2574613    68.509953 
50440000    327.36766    267.75999    -2.908439    2.5262957    59.607668 
50444000    329.04434     282.2741   -2.0449477    1.7538494     46.77024 
50448000    337.25011    284.35715   -1.9438962    1.1980505    52.892958 
50452000    324.48769    267.70241   -2.0565895    1.6515724    56.785286 
50456000    307.15112    269.99358   -1.0018154    1.6734089    37.157538 
50460000    313.82303    270.48876   -1.2198027   0.88100946    43.334269 
50464000     324.3028     300.7704   -2.1707305   0.70397609    23.532396 
50468000    315.53346    273.59931   -2.4573307    2.5643038    41.934145 
50472000    325.69684    270.28815   -2.8356737     2.706889    55.408687 
50476000    330.32357    274.95205   -1.9027432    1.6438189    55.371522 
50480000    302.73357    272.89439   -1.6300303    1.5139813    29.839177 
50484000    324.03746    297.73014   -1.3041212   0.54942875    26.307325 
50488000    329.67151    263.52881   -1.7595415    1.9324689    66.142708 
50492000    300.69384    288.17878  0.054622428    0.6081524    12.515062 
50496000    329.46795    278.08741   -1.6947984   0.17907427     51.38054 
50500000    307.30959    279.32762  -0.24648276   0.26719523    27.981974 
50504000    326.16543    275.67776   -2.2322048    1.1405112    50.487673 
50508000    337.29055    290.60366  -0.36626712   0.70039592    46.686888 
50512000    338.11572    264.09162   -1.2248924   0.42686718    74.024094 
50516000     326.4727    287.10022   -2.4109285 -0.031225705    39.372481 
50520000    308.56039    273.73175  -0.13033222     1.895564     34.82864 
50524000    295.11291     267.8994  -0.17932609    2.1301516    27.213507 
50528000    290.23412    273.03983   0.41548974   0.97131213    17.194293 
50532000    334.48304    266.09642   -1.6423095    1.8312966    68.386628 
50536000    306.01151    297.70701   -1.5953664  -0.82064716    8.3044962 
50540000    322.95918    292.39857   -1.4050526    0.5970299    30.560615 
50544000    317.62852    291.48676   -2.2659734    1.6703036    26.141765 
50548000    344.51665    269.90304   -3.4664982    1.6436407    74.613609 
50552000    316.27972    248.76002   -1.1368556     2.985903    67.519701 
50556000    301.98145    279.63249   -1.1940427   0.57549801    22.348954 
50560000    306.58175    279.97628   -1.2900715    1.1103007    26.605471 
50564000    322.68993    298.02032   -1.8167402   0.79481421     24.66961 
50568000    331.83059    295.31435   -2.2711025    1.6970111    36.516245 
50572000     334.2607    252.89427    -2.674053    3.0508573    81.366431 
50576000    333.14942    262.07479   -1.8721212    1.6806877    71.074629 
50580000    331.88729    284.73761   -2.4786345   0.75102262    47.149681 
50584000    317.15562    271.52829   -1.2164484   0.96995151    45.627327 
50588000    300.60522    304.11525  -0.13508561  -0.55549164   -3.5100261 
50592000    351.65349    279.70724   -3.3547036    1.7403887    71.946251 
50596000    347.80052    287.21252   -3.7641332 -0.033105164       60.588 
50600000    304.93355    292.03113   -1.0712417   0.11355459    12.902412 
50604000    290.74421     276.7217 -0.091666709    -0.588316     14.02251 
50608000    315.14506    278.20662   -1.0820069    1.2223718    36.938441 
50612000    310.97293    275.72527  -0.77922928    1.4178005    35.247657 
50616000    311.71398    283.31584  -0.28031629  -0.25380881    28.398132 
50620000    282.90266    278.98416   0.48037596   0.19513669    3.9185067 
50624000    343.26885    270.47742   -2.8485001   0.14840011    72.791426 
50628000    315.36153    264.32194  -0.44490794    1.6792616     51.03959 
50632000    338.76749    267.68023   -1.8502048    1.8228092    71.087262 
50636000    310.41086    278.39437    -1.067629   0.12270932    32.016483 
50640000     301.4944    287.49002  -0.17103898  -0.36137084     14.00438 
50644000    312.99382    271.75278    0.4802261   0.17558654    41.241044 
50648000    315.94798    288.20202   0.22962439  -0.34229336    27.745965 
50652000     331.2202    299.93412    -1.976908   -1.0328487    31.286078 
50656000    307.72233    277.93822  -0.44710811    1.2096934     29.78411 
50660000    322.09464    274.57433   -1.2841357   0.87782727    47.520306 
50664000     345.3449    264.97008   -2.3576222     1.578999    80.374816 
50668000     321.9294    267.56952  -0.78732265    1.1146381    54.359878 
50672000    341.54339    278.88529   -2.3513867   0.49144453    62.658102 
50676000    309.64721    272.70687  -0.85047935   0.93848989    36.940341 
50680000     309.9673    279.96791    -1.675347   0.65185327    29.999394 
50684000    301.41897     292.9345   -1.6052169   0.58686842    8.4844704 
50688000    346.61041    279.96111   -3.3258424    2.4430285    66.649298 
50692000    326.94186    274.20508   -1.0407743    1.8745165    52.736786 
50696000    319.05321     267.5762     -1.13992    1.4191471    51.477014 
50700000    328.47861    280.46338  -0.87675265   0.19258102     48.01523 
50704000    308.78263    276.92653  -0.73244149  0.018210619    31.856097 
50708000    316.41609    266.71081  -0.73029709    2.2639023    49.705273 
50712000    319.80933    279.96842   -1.0027801   0.94105348    39.840906 
50716000    330.54592    280.57716    -1.475664    1.3799809    49.968765 
50720000    317.80889      284.184  -0.72953298    2.1201426    33.624884 
50724000    308.37334    280.55182   -1.2017626     1.342388    27.821526 
50728000    339.24083    273.43737   -1.2814075    1.9897944    65.803459 
50732000    336.07527    266.09391   -1.6492428    1.8159924    69.981357 
50736000    333.98787    284.28335   -1.1050454    1.8783405    49.704527 
50740000    318.15872    276.86552   -1.5870813    1.7514571    41.293197 
50744000    319.62886      287.624  -0.90902786   0.76892169    32.004854 
50748000    315.16862    272.95186  -0.82491947    1.6686813    42.216759 
50752000    329.52569    278.35985   -2.3479756    2.2050272    51.165838 
50756000    313.00305    283.13131  -0.97800409    1.7619666    29.871737 
50760000     327.8982    276.26056   -1.4837242     1.474855    51.637633 
50764000    324.56546    282.77584   -1.8464409   0.22648541    41.789618 
50768000    307.07678    297.67257   -1.5142437   0.68725135    9.4042138 
50772000    318.78858     279.2454   -1.4948044     1.604333    39.543176 
50776000     296.0437    307.71014 -0.023129622    1.3264763   -11.666441 
50780000    331.61282    268.27876   -1.9890919    3.0771435    63.334059 
50784000     318.3282    265.92765  -0.90101654    2.3196182    52.400553 
50788000    316.57081     274.9098   -1.8704028     1.634319    41.661008 
50792000    299.26825    271.79055  -0.36497887    2.7429072    27.477702 
50796000    328.80536     272.5635   -1.5569115    2.1033822    56.241864 
50800000    317.34251    286.27902   -1.8968889   0.83150614    31.063487 
50804000    325.59979    284.43596   -2.4869844    1.1006126    41.163831 
50808000    314.43387    284.02548   -1.5938358    2.0731339    30.408394 
50812000    321.07567    272.51494  -0.84099394    1.8845815    48.560733 
50816000    324.02851    292.81166  -0.20573989    1.8833575    31.216847 
50820000    317.25667    280.18983    -1.073357    1.6641032    37.066843 
50824000    322.99146    288.06167   -1.6402658   0.68276411    34.929791 
50828000    312.89888    297.03646  -0.84603969    1.1680476    15.862419 
50832000    320.97554    301.38326  -0.69391037   0.13157492    19.592284 
50836000    307.45245    281.85253   0.38224906     1.280923     25.59992 
50840000    304.31919    282.37929    1.2085017    0.6581464      21.9399 
50844000    305.02891    275.64244  -0.30765697  -0.46537414    29.386471 
50848000     315.9524    283.82425  -0.78232938     1.604698    32.128146 
50852000    306.51744    286.81974 -0.045684325   0.96959986    19.697695 
50856000    323.89121    260.49071   -1.3621222    1.3582982    63.400497 
50860000    327.63034    301.16421   -1.6197913   0.34596365    26.466133 
50864000    321.90883    305.25033   -1.6971245   0.66465891    16.658496 
50868000    299.95763    298.78698   -0.1783551   0.69621733    1.1706433 
50872000    304.20951    297.68589  -0.28765008    1.2033305    6.5236218 
50876000    304.21157    306.17749   0.63983142  -0.49137118   -1.9659197 
50880000    302.57974    269.14106  0.089342942     1.888182    33.438683 
50884000    344.62771    282.79595   -3.3175083    1.1779405    61.831755 
50888000    330.25827    285.19663   -2.7708723   0.37865117    45.061634 
50892000    303.24718    281.36127    1.1138104    1.6335669    21.885916 
50896000    353.04583    284.26601   -2.6269237    1.4155827    68.779818 
50900000    338.45809    285.61794   -1.1487652    2.2943661     52.84015 
50904000    325.82355    277.43365  -0.72873058    1.0799742    48.389898 
50908000    325.79133    287.87893  -0.92516921  0.034717716    37.912401 
50912000    337.33454    294.13985   -1.0277129    1.9431472    43.194693 
50916000    325.11741    271.63241   -1.7233135    1.8985837    53.484993 
50920000    326.32432    274.53016   -1.6540045    2.7400595    51.794163 
50924000    341.57976    286.62815   -2.1209146    2.4348977    54.951608 
50928000    310.60547    286.42658  -0.94251756    2.1679566    24.178892 
50932000    318.77288    286.13778 -0.019422583    1.1545615    32.635093 
50936000    305.32379    291.57416   -1.0315633    1.8971294    13.749632 
50940000     326.7736    290.34802   -2.0795162    1.6650867    36.425582 
50944000    325.32407    271.82067   -1.0699986    1.7416357    53.503405 
50948000    334.16013    284.88114   -2.3776039   0.99917561    49.278994 
50952000    306.49796    267.07963  -0.48045454    1.6097778    39.418327 
50956000    350.12333    291.56164   -4.5051387  -0.16112894    58.561689 
50960000    317.46159    264.39922  -0.83062923     1.263287    53.062365 
50964000    309.18174    277.89962   0.27782951   0.69828063     31.28212 
50968000    310.75169    268.86377   0.43624312    1.4690514    41.887922 
50972000    316.48377     278.2138   -1.6246406    1.7253694    38.269962 
50976000    320.72138    291.42794   -2.2445009    1.0027198    29.293439 
50980000    299.96752    294.51946   0.86683301   0.72140847    5.4480604 
50984000    308.48891    287.14826  -0.74965333   0.73793069    21.340656 
50988000    334.36839    273.04147   -1.6440436   0.68517907    61.326922 
50992000    313.01072    305.68053  -0.26310841  -0.40269044    7.3301883 
50996000    337.92907    279.29591   -2.0871493   0.41088388    58.633162 
51000000    307.71411    279.82538  -0.27549877   0.97218825    27.888733 
51004000    334.88311    291.41107   -1.9183297    1.0932414    43.472039 
51008000    346.82694     293.1922   -2.4968404   0.14583592    53.634734 
51012000    320.02868    294.12968    -2.188985   0.64599539    25.898996 
51016000    334.48627    269.29222   -2.0877307    2.6196734    65.194051 
51020000     313.9467    286.47389   -1.5240389    1.2719788    27.472807 
51024000    343.78086      306.472   -2.7009825    1.3639215    37.308858 
51028000    322.09812    284.29705   -3.0872953    2.3102022    37.801069 
51032000     326.8533    278.48834   -1.6617665     1.853583    48.364957 
51036000    337.79379    276.36774   -1.9427502    1.6574142     61.42605 
51040000    323.48032    271.66857  -0.90678262    1.5112653    51.811755 
51044000    318.84841    279.61403  -0.39058363    1.2659747    39.234374 
51048000    358.86985    300.75646   -2.7602812    1.3182104    58.113382 
51052000    300.28275    290.43343   -1.3085427    2.2826346    9.8493221 
51056000    306.00372    282.80262   0.39375208    1.7240213    23.201095 
51060000     310.0884    269.77429   -1.2936528    2.2133447    40.314112 
51064000    319.78195    271.61574   -2.9138651    3.2187294    48.166205 
51068000    309.53881    280.11393   -1.4998469    2.4587236    29.424882 
51072000    314.79306    275.41425   -2.6244111    2.4869386    39.378803 
51076000    318.29373    295.47027   -3.8718984    1.6509922    22.823468 
51080000    312.60114    267.16901   -1.6392287    2.7842232    45.432136 
51084000    332.09415    296.27539  -0.95746691    2.2878639    35.818764 
51088000    335.50223    281.69479   -2.1162888    2.8904825    53.807443 
51092000    323.79661    286.99235    -1.971097    2.5950215    36.804256 
51096000    314.13137    282.93237   -1.2351991    2.1725585       31.199 
51100000    302.66947    287.60678   -1.7812259    1.5811186    15.062682 
51104000    320.42946    279.82408   -1.1227252    2.1693856    40.605386 
51108000    337.92864    282.82326   -2.9000398    2.0333403    55.105377 
51112000    337.90979    276.20946   -1.7752606    2.8053754    61.700325 
51116000    332.32799    284.90631   -2.7683998    2.9512127    47.421687 
51120000     317.6911    271.26954   -2.7722801    1.8104208    46.421557 
51124000    317.47363     279.8533   -1.7261987    2.5636953    37.620324 
51128000     331.4673     284.4888   -2.6994612    1.6095606    46.978498 
51132000     327.1348    271.28672   -2.9964418    1.5687376     55.84808 
51136000    301.58563    289.27516   -2.1152776    2.2863509    12.310463 
51140000    325.83933    275.49557   -2.7660186    2.2138023    50.343759 
51144000    323.36244    300.24232   -2.2416988    2.2980336    23.120117 
51148000    323.54471     272.8777   -4.4496865    2.6459466    50.667014 
51152000    311.85645    292.03928    -2.630248    1.0840705    19.817166 
51156000    313.34844    290.06531   -2.6799862   0.60820367    23.283126 
51160000    309.86743    288.51144   -1.0612052   0.67188484    21.355987 
51164000    324.43093    283.89033   -2.6803064   0.34724714    40.540602 
51168000    324.20018    281.11649   -3.6727485    1.3849489    43.083694 
51172000    348.37172    270.91323   -3.9871095    2.0309524    77.458495 
51176000    344.60506    284.80596    -3.248674    1.0682716    59.799107 
51180000     332.1764    265.22409   -3.4092316    3.0101686    66.952316 
51184000    325.09005    278.35404   -3.3607511    2.0566147    46.736002 
51188000    332.73111    269.65066   -3.1860454    2.1562095    63.080442 
51192000    314.89365    280.33701   -2.7907679    1.8047391    34.556644 
51196000    322.90445    271.63011   -1.9416821    1.7271432    51.274344 
51200000    295.36407    268.44842   -1.6928694    2.4258797    26.915652 
51201000    340.34608    293.98139   -2.4767597    1.6569339    46.364683 
Loop time of 1105.54 on 4 procs for 800000 steps with 1498 atoms

Performance: 15.630 ns/day, 1.535 hours/ns, 723.629 timesteps/s
99.5% CPU use with 4 MPI tasks x no OpenMP threads

MPI task timing breakdown:
Section |  min time  |  avg time  |  max time  |%varavg| %total
---------------------------------------------------------------
Pair    | 552.98     | 763.88     | 980.24     | 747.7 | 69.10
Bond    | 3.4742     | 5.3461     | 7.1374     |  77.4 |  0.48
Neigh   | 5.9753     | 5.9782     | 5.9796     |   0.1 |  0.54
Comm    | 14.065     | 216.91     | 424.43     |1374.1 | 19.62
Output  | 0.0042978  | 0.014661   | 0.024543   |   5.9 |  0.00
Modify  | 58.744     | 86.869     | 116.64     | 228.4 |  7.86
Other   |            | 26.54      |            |       |  2.40

Nlocal:    374.5 ave 714 max 35 min
Histogram: 2 0 0 0 0 0 0 0 0 2
Nghost:    2385 ave 4277 max 496 min
Histogram: 2 0 0 0 0 0 0 0 0 2
Neighs:    13044 ave 25855 max 312 min
Histogram: 2 0 0 0 0 0 0 0 0 2

Total # of neighbors = 52176
Ave neighs/atom = 34.8304
Ave special neighs/atom = 0.518024
Neighbor list builds = 1400
Dangerous builds = 0
unfix 1


# PRODUCTION

fix             1 all nve
fix             hot all langevin ${TThi} ${TThi}  0.005 59804  tally yes
fix             hot all langevin 320 ${TThi}  0.005 59804  tally yes
fix             hot all langevin 320 320  0.005 59804  tally yes
fix             cold all langevin ${TTlo} ${TTlo} 0.005 287859 tally yes
fix             cold all langevin 280 ${TTlo} 0.005 287859 tally yes
fix             cold all langevin 280 280 0.005 287859 tally yes
fix_modify      hot temp Thot
fix_modify      cold temp Tcold

variable        tdiff equal c_Thot-c_Tcold
thermo          4000

dump gigo all atom 4000 dump.cords_xyz.dat
dump_modify gigo scale no
dump vfgigo all custom 4000 dump.velo.dat id vx vy vz fx fy fz

# thermal conductivity calculation
# # reset langevin thermostats to zero energy accumulation
#
compute         ke all ke/atom
variable        temp atom c_ke/1.5/0.00008617333262

fix             ave all ave/time 100 40 4000 v_tdiff ave running
thermo_style    custom step temp c_Thot c_Tcold f_hot f_cold v_tdiff f_ave

#compute         layers all chunk/atom bin/1d z lower 0.05 units reduced
compute         layers all chunk/atom bin/1d z lower ${dz} units box
compute         layers all chunk/atom bin/1d z lower 6.07002733880137 units box
fix             2 all ave/chunk  100 40 4000 layers v_temp file profile.langevin

run             16000000
WARNING: Using a manybody potential with bonds/angles/dihedrals and special_bond exclusions (../pair.cpp:218)
Neighbor list info ...
  update every 1 steps, delay 0 steps, check yes
  max neighbors/atom: 2000, page size: 100000
  master list distance cutoff = 16
  ghost atom cutoff = 16
  binsize = 8, bins = 3 3 23
  4 neighbor lists, perpetual/occasional/extra = 4 0 0
  (1) pair lj/cut, perpetual, skip from (4)
      attributes: half, newton on
      pair build: skip
      stencil: none
      bin: none
  (2) pair morse, perpetual, skip from (4)
      attributes: half, newton on
      pair build: skip
      stencil: none
      bin: none
  (3) pair eam, perpetual, skip from (4)
      attributes: half, newton on
      pair build: skip
      stencil: none
      bin: none
  (4) neighbor class addition, perpetual
      attributes: half, newton on
      pair build: half/bin/newton
      stencil: half/bin/3d/newton
      bin: standard
Per MPI rank memory allocation (min/avg/max) = 12.22 | 12.33 | 12.44 Mbytes
Step Temp c_Thot c_Tcold f_hot f_cold v_tdiff f_ave 
51201000    271.04058    340.34608    293.98139           -0           -0    46.364683            0 
51204000    265.44992    335.62683    259.28216  -0.43576427    1.8184405    76.344668            0 
51208000    273.16335    333.87333    267.94836   -1.0732248   0.70292627    65.924975     34.68183 
51212000    275.16873    317.28836      298.726   0.55507376  -0.98660109    18.562363    37.429661 
51216000    267.42459    302.29478    277.80002   0.10351659     -1.45237    24.494757    39.254439 
51220000     277.0528    321.39288     294.0157  -0.86550569  -0.74554099    27.377186    38.880343 
51224000     265.2232    313.42257     264.0345   0.11029116   0.34848608    49.388075    39.585138 
51228000    279.06312    328.50414    292.69627  -0.73184838  -0.96184588    35.807869    39.559438 
51232000    276.98294    328.55327    271.24648  -0.88375181   0.67124039    57.306797    39.669157 
51236000    279.38092    342.29732    275.84277  -0.75164643  -0.67548345    66.454549    40.172069 
51240000     269.1094    308.42238    269.36076   -1.1138288   0.12797736    39.061622    40.028595 
51244000    267.61057    314.38897    270.06563  -0.56615978   0.55483529    44.323342    39.738828 
51248000     273.2602    330.31136    286.53886  -0.84367162   0.24604642    43.772491    39.967014 
51252000    270.04634    303.66936    284.76333    1.4865826   0.45957085     18.90603    40.070897 
51256000    269.54023    327.50091    260.37594 -0.043543569    1.0486238    67.124961    39.947983 
51260000    272.75576    329.21022    271.98313   -1.0466599  -0.12124312    57.227091    40.032931 
51264000    271.20281    313.39684     277.3033  -0.42585059  -0.98658846     36.09354    40.283838 
51268000    282.01695    333.83088    292.97627  -0.85629678   -0.4233228    40.854602    40.241674 
51272000    271.33536    307.07585    288.49075  -0.93749452  -0.49438978    18.585108    40.346058 
51276000    272.44344    318.48819    279.37292  0.042820736   0.68911419    39.115271     40.06219 
51280000    271.48529    327.00499    282.26656  -0.81728598  -0.02701907    44.738433    39.975335 
51284000    276.43298    330.94154    279.87396  -0.68947445   0.20375563    51.067574    39.923183 
51288000    275.50656    333.85515    279.99582   -1.1031967   0.96634877    53.859326    40.102605 
51292000    273.55205     313.3638    290.68827    1.2874419   0.20512982    22.675533    40.216666 
51296000    279.85483    341.24626    289.14728  -0.98993036  -0.50094424    52.098979    39.960571 
51300000    275.40091    321.11584    305.75658   0.35184993   -1.0663785    15.359259    40.116878 
51304000    272.69402    328.82464    287.13895  -0.14835471  -0.12507892    41.685698    40.104864 
51308000    278.53431    357.73851    278.75925   -1.2971748  0.090813177    78.979261    40.186015 
51312000     271.3458    339.81554    253.52956  -0.90052135    1.3271385    86.285989    40.155653 
51316000    276.56156    330.41878    282.73414   -1.4814978  -0.26935213    47.684648    40.214523 
51320000    282.40034    333.80173    286.59319  -0.43020856   0.88103706    47.208537    40.325642 
51324000    269.15262    304.77031    282.79874    1.0680421   0.90226535    21.971567    40.235842 
51328000    275.97626    306.70443    301.80877   0.56825563  0.017186151    4.8956632     40.18861 
51332000    277.20875    348.95405    265.18524   -2.4988059    1.3800113    83.768809    40.224907 
51336000    271.68966    311.69286    291.43746   -1.5171426   0.32362831    20.255408    40.241465 
51340000    283.48343    335.01293    302.37653   -2.0037459   -1.2562191    32.636401    40.208004 
51344000    274.10101    319.87935    276.74925   -1.8607091  -0.19209434    43.130104    40.281896 
51348000    271.78231    327.16492    263.22662   -1.6512594   -0.1504988      63.9383    40.274841 
51352000    274.05959    314.72554    299.10936   0.94196011  -0.53104988    15.616181    40.257473 
51356000    269.42158    327.15307    267.62605  -0.34296055   0.58733399    59.527015    40.334709 
51360000    269.57037    288.91029    301.40286    1.8223736   -1.4062563   -12.492577    40.335009 
51364000    270.03766    318.39102    272.10499   0.71567051   0.21778408    46.286026    40.340111 
51368000    272.66843    319.31031    278.11777   0.14901287  -0.18857358    41.192538    40.372297 
51372000    267.01461    317.13142    257.05864   0.43933294   0.71582832    60.072779    40.440016 
51376000    269.91486    314.11048    279.11445    1.4725319  -0.43526269     34.99603      40.3471 
51380000    274.51471     320.1415    283.53403    1.2231752 -0.078219416    36.607476    40.446286 
51384000    266.93224    304.83718    286.68818    2.5722333  -0.91214949    18.148998    40.339317 
51388000     269.0588    336.96734     283.3829   0.32920327   0.51092423    53.584438    40.267534 
51392000    274.00659     333.9091    277.92309    0.4872795    1.1018721    55.986007    40.214911 
51396000    273.71106    338.17148    292.61926   0.30704533   0.47766516    45.552219    40.264499 
51400000    273.02712    317.16999    292.42117    1.6419601   0.81207028     24.74882    40.102766 
51404000    270.26491    324.15011    275.54281    2.0372713   0.81160124    48.607291      40.0278 
51408000    277.09649    329.75554    291.20733   0.80739945   0.89906783    38.548203    39.999662 
51412000    268.52069    315.05437    264.43231   0.49322505    2.7701804    50.622059    40.062063 
51416000    277.19098    344.15728    277.11153  -0.74863489    1.2764334     67.04575      40.0772 
51420000    261.00409    303.43073    273.30278    1.2458665   0.56995518    30.127946    40.108141 
51424000    269.08498     329.1417    268.97933   0.89713673     1.361346    60.162364    40.069333 
51428000     273.8327    332.62953    280.52706   0.25729741    1.0098799    52.102467    40.178156 
51432000    272.38744    339.96802    248.63275   0.48145963    2.3750671    91.335265    40.198284 
51436000    253.64388    299.02652    249.35185    2.3386617     1.278851    49.674672    40.182336 
51440000    272.49524     325.0545    279.48747    1.2983291 -0.054156708    45.567038    40.159774 
51444000    271.48806    327.78596    275.99232   0.69560902    1.0410935    51.793648    40.134158 
51448000    268.67012    320.83606    277.55161   0.83699605   0.35036041    43.284453    40.135259 
51452000    276.62071    326.03839    278.51247   0.64760329  0.074184023    47.525918    40.157711 
51456000    267.49824    325.27524    273.18456   0.98674177   0.89812198    52.090672    40.224752 
51460000    263.11872    305.71141    273.32088    2.1652362    1.6219055    32.390523    40.350807 
51464000    274.25779    325.30848    295.14348   0.59545992  -0.80980429    30.165001    40.293472 
51468000    272.93846    316.70867    294.54588  -0.56433908  -0.54528827    22.162795    40.339709 
51472000     271.4401    328.33363    279.65327  -0.60341004     0.325929    48.680359    40.335244 
51476000    268.44631    303.97353    292.56109    1.1452196  -0.69827444    11.412438    40.332087 
51480000    277.69691    337.77775    282.14009  -0.44177169   -0.1901783    55.637669    40.349938 
51484000    267.58074    317.35012    276.01141   0.77662084  -0.46265072    41.338709    40.339056 
51488000    274.74431    322.71673    271.91783    1.1126884   0.61691999    50.798898    40.359531 
51492000    276.43726    331.36266    297.45577   0.17367135   0.22558781    33.906892    40.413756 
51496000    272.46088    321.76654    276.05037   0.23381166    1.6972088     45.71617    40.373069 
51500000    269.67377      321.345    282.07093    1.7949373  -0.71525506    39.274066    40.330383 
51504000    259.53717    295.75853    282.02139    2.4026978  -0.44851102    13.737138    40.413621 
51508000    270.32379    326.54495    277.07685   0.41663593   0.96912269      49.4681    40.459473 
51512000    275.24988    327.77834    286.68182   0.52833219   0.77165491    41.096516    40.429282 
51516000    267.23021    321.31872    263.37603   0.48533771    2.1270781    57.942685    40.398269 
51520000    272.43066    344.75426     258.0691   -0.6913192    1.9085895     86.68516    40.439471 
51524000     277.4104    328.95833    291.45415   0.28718191   0.55378481    37.504188    40.485607 
51528000    264.38666    328.27306     261.8133  -0.75937787   0.62589755    66.459759    40.473473 
51532000    275.14804    320.35317    287.63742  0.059152968  -0.19064841    32.715755    40.518794 
51536000    273.51567     318.9888    278.52759     0.186844  -0.10966153    40.461207     40.53048 
51540000    271.80839     300.8015    294.37019    1.0766666  -0.70391312    6.4313128    40.547819 
51544000    275.08802     317.7189    282.65259   0.56689241 -0.069875756    35.066306    40.583205 
51548000    277.87476    334.63789    281.26767  -0.75505947    0.4248209    53.370216    40.539057 
51552000    281.89201    326.61256     288.5257   -1.0352735  -0.86939272    38.086867    40.536888 
51556000    274.57876    314.53219    284.60012    1.3056673  -0.27023339    29.932062    40.564521 
51560000    280.55468    328.88906     288.4774   0.46864869    -1.877531    40.411667     40.58133 
51564000    278.59018    329.55405    281.25799  -0.86559967  -0.42334636    48.296067    40.565714 
51568000    273.94437    302.57348    290.18621    1.1227459   -1.2595774    12.387276    40.541034 
51572000    270.16184    319.71205    270.77247    0.9826426   0.52196244    48.939587    40.562599 
51576000    261.61165    299.20594    273.52648    1.1365989   -0.3270291    25.679465    40.548721 
51580000    276.83384    327.02251    289.44941  -0.23148782  -0.78789935    37.573099     40.54167 
51584000    268.95374    298.53443    276.41633    1.4030584  -0.79778605    22.118095    40.529956 
51588000    271.71095    327.18831    276.63167  -0.93242979  -0.50410254    50.556636    40.564109 
51592000    279.81819    330.77893    287.40917  -0.95372046  -0.49247825    43.369752    40.569194 
51596000    275.26586    322.65248    286.87473  -0.86845894 -0.037749735    35.777746     40.51267 
51600000    273.22414      300.433    272.09288   0.53354899   0.24164959    28.340119    40.518058 
51604000    283.14303    326.13908    280.56747   -0.9832753   -1.3544628     45.57161    40.501836 
51608000    281.40064    312.92508    297.93773   -1.8608113    -1.498069    14.987344     40.45994 
51612000    271.92767    307.18139    277.72371  -0.66653524   -0.3872241    29.457676    40.445236 
51616000    271.81174    319.94076    269.66124  -0.40999367    1.3365099    50.279519    40.448395 
51620000    281.03052    334.15145    281.96092   -1.1867727   -1.2234571    52.190528     40.45039 
51624000    281.38247    318.92474    298.72828   -2.0165051   -1.2165882    20.196461    40.403686 
51628000    271.63158    303.66818    280.37775  -0.48093534  -0.32216503    23.290428    40.438047 
51632000    279.92609    310.12059    292.94253  -0.18075688  -0.70750558    17.178061    40.383432 
51636000    272.70155    300.38656    267.80805   0.44147929   0.84550045    32.578513    40.327214 
51640000     280.3723     302.5755    282.95565   0.35893383  0.090441703     19.61985    40.321264 
51644000    275.32212    324.44486    286.47206  -0.97138919  0.067698664    37.972792    40.295553 
51648000    276.50749    318.83589    280.92421  -0.76841617    1.2346055     37.91168    40.314549 
51652000    268.76447    309.58523    273.08613     0.238243    1.0244263      36.4991    40.286261 
51656000    269.35528    322.29924    278.56462  -0.66739415   0.33150106    43.734622    40.287162 
51660000    278.28354    331.75888    295.85921  -0.27921219  -0.83426389     35.89967    40.314749 
51664000      282.051    344.39988    283.83037   -1.4658352   0.52803282    60.569512    40.308427 
51668000     266.6366    304.33144    274.46502   0.12090852    1.2138858    29.866424    40.268221 
51672000    266.01559    303.88554    261.03797  -0.18032383    2.0577559    42.847569    40.308326 
51676000     267.8341     292.8858    306.16994   0.49690373  -0.34151075    -13.28414    40.276801 
51680000    267.35545    315.93625    258.60909   0.39524753    2.0970257    57.327163    40.190992 
51684000    284.47779    345.63927    298.62475   -2.4341175  -0.12688879    47.014523    40.201857 
51688000    272.63006    317.14449    293.46844   0.11865463  -0.44455948    23.676056    40.203129 
51692000    265.61213    307.64602    252.20438 -0.013424686     1.895441    55.441637    40.222117 
51696000    279.92527    327.17588    288.37073  -0.52108903  -0.47017201    38.805147    40.266389 
51700000     273.9678    327.01205    276.59137  -0.78590409   0.73126442    50.420685    40.259852 
51704000    276.52255    320.08656    282.06162   0.52325234   0.41513023    38.024939    40.244926 
51708000    276.55746    317.86298     284.0774   0.20418422  -0.83059666     33.78558    40.222021 
51712000    275.96917    312.60147    301.46031  -0.22170093   0.49443144    11.141154    40.196906 
51716000    271.92774    330.37334    270.42343  -0.42855827   0.75629084     59.94991    40.227148 
51720000      269.886    326.00471    275.07968   -0.5617765    2.5085315    50.925037    40.213273 
51724000    278.97493    321.03107    284.10137  -0.78725717    1.3360482    36.929697    40.216862 
51728000    276.41888    320.04824    288.44223  -0.83858442    1.3143136    31.606007    40.203089 
51732000    269.25894    323.29143    280.54304  -0.20768935    1.7729014    42.748392    40.226146 
51736000    275.86883    314.41499    293.27075   -1.0808924   0.82420459    21.144247    40.222197 
51740000    280.10633    323.47262    289.73189  -0.79925932    1.2855016    33.740726    40.193545 
51744000    270.49524    319.87069    262.09637   -1.0365413    2.1333317     57.77432    40.182447 
51748000    270.71876    319.92096    284.69377  -0.73209219    1.2817663    35.227188    40.146736 
51752000    268.17859    307.88544    275.54861   0.46676734    1.2009249    32.336826    40.126058 
51756000    275.68607    328.06554    289.17759   -1.3751696   0.25726693    38.887952    40.119234 
51760000    270.68839    323.18374    264.30661  -0.57131508    2.2607935    58.877132    40.139056 
51764000    276.92551    329.72805    275.59216   -1.2548285    1.0173646    54.135884    40.137276 
51768000    272.51094    302.15946    260.28623   0.76378271    1.5470189    41.873228    40.195052 
51772000    266.81789    321.71549    264.87222   -1.4822304    2.0908215    56.843272    40.197569 
51776000     265.3988    298.06077    279.70525   0.72119834    1.0375732    18.355518      40.1858 
51780000    270.60023    301.79629    289.32215   0.64439637    1.2717699     12.47414     40.19437 
51784000    271.88734    327.58571    277.57287   -1.0679301    1.5956413    50.012846    40.177762 
51788000    272.06073    340.96145    279.52668    -2.134803    1.1737675    61.434769    40.189458 
51792000    272.11529    308.91597    300.29707   0.05340026    1.2526976     8.618906    40.159877 
51796000    272.57338    310.51019    291.24541   0.29898473    1.0827712    19.264776    40.198502 
51800000    264.82515    305.57534    265.90084  -0.14780189    2.4095998    39.674496    40.197087 
51804000    287.60984    336.94724    316.52512   -1.4190416   0.35194143    20.422119    40.172937 
51808000    273.03767    324.08612    293.44124   -1.1373709   0.60178422    30.644878    40.138345 
51812000    275.45959    329.16974    292.19876  -0.89986512   0.84300017    36.970985    40.122688 
51816000    272.45049    318.87834    280.49976  -0.72200796     1.725685    38.378575    40.118204 
51820000    269.99155     319.4895    268.50139  -0.71007831    2.8246511    50.988108    40.106785 
51824000    280.84754    344.17955    300.57088   -2.4214751    1.3621037    43.608662    40.109007 
51828000    273.28435      321.618    271.39782   -2.8192511    2.5933152    50.220182    40.117605 
51832000    278.69804    331.65534    293.75835   -1.9259367   0.81851028    37.896994    40.133651 
51836000    279.24382    346.22824    286.24982   -3.1085098    1.1778116    59.978425    40.150036 
51840000    273.81215     321.2667    292.88701   -1.7575489    1.3764261    28.379688    40.146824 
51844000    271.38417     303.7784    286.92189   0.31385114    1.7602528     16.85651    40.172672 
51848000    281.28808    352.43071    281.83662   -1.9602735   0.26028576    70.594086    40.195314 
51852000    273.30535    312.00981    287.23631  -0.40258695   0.99608465    24.773497    40.200777 
51856000    272.16834      312.137    292.49531  -0.94836755    2.0072282     19.64169    40.205321 
51860000    271.16309    311.16843    276.73168   -1.2253751    2.6076323    34.436755    40.195154 
51864000    271.10906    318.46909     273.9495   -2.6224594     2.481949    44.519587     40.17894 
51868000    271.43125     311.0051    296.76333 -0.092412438    1.2737749    14.241771    40.187662 
51872000    264.52968    299.11399    263.59088  -0.25495635    1.6221744     35.52311    40.195629 
51876000    276.73247    322.78477    287.75404   -1.5900589    0.6239427    35.030733    40.202694 
51880000    269.09679    306.19689    270.38762  -0.21088855    2.0663764    35.809268    40.211132 
51884000    278.85377    331.35287    290.42766   -1.4216217    1.2703113    40.925216    40.204601 
51888000    274.13441    349.92621    264.66801   -2.1406115    1.4664359    85.258203    40.227676 
51892000     275.0965    319.55212    290.89664   -1.8956499   0.96437557    28.655475    40.201786 
51896000    263.74119    295.59967    289.06849   0.22052777   0.43199012    6.5311784     40.17942 
51900000    279.47769    334.12144    284.17763   -2.0024332   0.59957391    49.943807    40.183958 
51904000    268.45438     325.8157    268.43249   -0.1242807    3.0501507    57.383213    40.173554 
51908000    274.96372    324.19098    272.12634  -0.28804565    2.2986154    52.064645    40.176073 
51912000     270.4977    311.99159    274.40222    1.0003376    2.3784962    37.589367    40.177305 
51916000    275.47185    320.70966    290.82391   -1.5626803   0.37144822    29.885752    40.148297 
51920000    272.65261    323.42212    270.81809  -0.74644739    1.2685265    52.604034    40.150973 
51924000    275.81729    326.22379    277.95652   -1.6888044   0.44619502     48.26727    40.143163 
51928000    276.58393    332.56956    285.35037   -2.5503621    1.2912941    47.219195    40.141064 
51932000    274.12817    327.50555    277.05874   -1.6347261   0.83185036    50.446805    40.148218 
51936000    272.28095    334.54441    279.92505   -3.1872577   0.43170355    54.619361    40.169708 
51940000    271.49647    321.94207    262.87525   -1.3617461    2.2845926     59.06682    40.180383 
51944000    277.57581    332.61643    283.79889   -2.0448291       2.6083    48.817545    40.183145 
51948000    272.12182    320.30797    278.81945   -2.1756118    1.4267984    41.488518    40.185718 
51952000    278.42474    316.56405    275.20937   -1.6905309    1.1132363    41.354683    40.197058 
51956000    272.88322    325.92376    290.19242   -2.9499067    1.3249688     35.73134    40.192933 
51960000    275.78396    325.14886    290.80735   -2.7994822   0.55291113    34.341508    40.193005 
51964000    274.88798     336.5969    273.19477   -3.6419251    1.7626674    63.402127    40.197392 
51968000    275.62839    333.78076    276.89321   -3.4993748     2.269064    56.887551    40.188005 
51972000    267.97179    327.27783    261.48496   -2.0331975    3.3353751     65.79287    40.184265 
51976000    278.21186    323.39749     306.5786   -2.3147159   0.25627174    16.818889    40.165302 
51980000    274.41421    321.91824     284.3291   -1.8676178     1.807001    37.589143    40.180181 
51984000    274.19465    315.25402    292.07661   -1.9381236   -0.5610398    23.177413    40.173088 
51988000    275.32573    329.14815    282.94045   -1.9009189    1.1401502    46.207698    40.185235 
51992000     265.5981    311.07741    270.95867  -0.65534597    1.3620018     40.11874    40.179081 
51996000    268.39435    308.64499    259.36626  -0.72839384    2.7483966     49.27873    40.175271 
52000000    275.71445    317.05346     275.0492   -1.6642333     1.933185     42.00426    40.193817 
52004000    271.46527    318.03947     278.7271   -2.5300263    1.1846101    39.312372    40.184481 
52008000     283.7152    319.18593    301.15864   -2.5727756  -0.36340499    18.027293    40.187293 
52012000    273.96101    308.81379    282.68347   -2.2024312   0.57188263    26.130319     40.19982 
52016000    269.36503    300.38473    282.79434   -1.9311351    1.3533579    17.590388    40.172674 
52020000    279.48154    331.45457    271.71762    -3.631284    2.0404189    59.736956    40.184744 
52024000    281.15693    310.19048    302.21449   -1.8024263    0.4422496     7.975992    40.190623 
52028000    273.54223    327.94445    265.58959    -1.781621    1.3207531    62.354858    40.191109 
52032000    275.88641    357.07773    267.35667   -4.6831302   0.33981918    89.721053    40.203337 
52036000    281.47536    326.96241    296.18647   -1.7187192  -0.90138302    30.775939    40.198295 
52040000    277.56477    326.62747    271.00411   -1.1227597   0.71498217     55.62336    40.191282 
52044000    271.05513    316.67735    264.60599   -2.1015859    2.0692664    52.071361    40.164081 
52048000     279.9393    322.32674    285.17162   -1.6091137   0.50933148    37.155119    40.159558 
52052000    283.96374    338.70902    287.91312   -2.5747318  0.096476755    50.795904    40.168044 
52056000    270.55329    308.40715    270.45503   -1.8935111     1.446491    37.952112    40.170002 
52060000    275.07938    328.38231    266.11243   -1.1949572    2.9657022    62.269886    40.177015 
52064000    269.76751    317.98711    281.59529  -0.61394647   0.56884456    36.391819    40.155655 
52068000    273.51468    313.68069    271.24382   -0.4149966    1.9940979     42.43687    40.129294 
52072000    276.07866    324.51777    281.48085   -1.6361787    1.7655543    43.036918    40.126695 
52076000    274.60981    307.95695    293.35402  -0.38485065  -0.32179953    14.602928    40.127547 
52080000    272.71162    323.05453    286.28474   -1.5377916   0.30672063     36.76979    40.093866 
52084000      267.485    304.73454     282.9168  -0.21551387   0.45797245    21.817735    40.094274 
52088000    279.53053    334.10343    285.90123   -1.1022744   0.32811044    48.202205    40.097843 
52092000    272.90329    310.69569    276.89914  -0.31826316   -1.1859027    33.796556    40.118575 
52096000    270.24965    293.33298    273.24904   0.65884059  0.064202563    20.083942    40.122676 
52100000    276.77269    323.60207    277.14791   -1.0334321  0.018576178    46.454152    40.125836 
52104000    270.56954    321.48505    252.34693   -1.2181966   0.30862401    69.138121    40.129866 
52108000    266.80463    322.22289    273.66854  -0.33329518    1.2171018    48.554353    40.121017 
52112000    278.56009    321.21155    281.26367 -0.045234856   0.50665406    39.947881     40.11731 
52116000    280.60176    329.58506    293.34716 -0.019687132  0.012046632    36.237902    40.124264 
52120000    276.67893    337.87754    277.97426  -0.85598756   0.61790064    59.903281    40.129266 
52124000    268.44692    292.17801    261.09927    1.4636129   0.43038695    31.078742    40.146573 
52128000    281.87984    355.01878    287.63483   -1.0940316   0.06424412    67.383948    40.138508 
52132000    267.88907    305.22873    273.77797  -0.11717453   0.56690641    31.450763    40.114573 
52136000    273.43426    320.47481    275.96533  -0.21085587    1.0124683     44.50948    40.106547 
52140000    279.58913    336.62916    275.09203   -1.4153078      1.28263    61.537131    40.108062 
52144000    271.80782    324.47239    280.16946   0.17329104   0.61185762     44.30293    40.116566 
52148000    270.28916    314.78649    279.40912  -0.77822354    1.6054354     35.37737    40.108139 
52152000    269.69652    318.64657    276.63944   -1.4270701   0.93303525    42.007136    40.115893 
52156000     284.4931    357.25924    285.15408   -1.6670608     0.502899    72.105154    40.124032 
52160000    264.85936    303.88656    288.45386  -0.19359937  -0.67614821    15.432706    40.121348 
52164000    270.20488    318.86227    277.37563 -0.048881688   0.53679075    41.486643    40.108805 
52168000    261.59347    291.69278    269.50628   0.91417833    1.6128026    22.186496    40.111174 
52172000    269.93298    318.62907     270.4345   0.72281139   0.38118421    48.194577    40.104252 
52176000    277.18414    311.39806     306.0884  -0.17990714   -1.6220841    5.3096663    40.106546 
52180000      269.022    309.89365    288.76739   0.29459815   0.33008404     21.12626    40.127627 
52184000    269.39361    313.73424    282.39892  -0.34323606   0.85165199    31.335325    40.120358 
52188000    278.59031    331.65518    282.18295   -2.0111027   0.86043081    49.472233    40.128392 
52192000    276.06702    335.79915    279.56887   -1.4798031   0.23680365    56.230279    40.149971 
52196000    277.64884    331.85044    285.14899   -1.2467801    1.2225409    46.701447    40.148647 
52200000    273.60088    316.28361    289.95419   0.40353539    1.4689146    26.329418    40.130574 
52204000    272.11834    319.98765    269.37994  -0.28566648    1.9134687    50.607706    40.133353 
52208000    276.15803     343.5957    260.75826  -0.93259463    2.2095048    82.837431    40.127855 
52212000    262.59496    300.80043    264.23576   0.70216712    2.0086814    36.564669    40.125605 
52216000    273.14966      324.175    284.96098  -0.58193986    1.3539365    39.214014    40.118328 
52220000    262.71358    306.63305    263.68671  -0.41136816    2.6190196    42.946341    40.117539 
52224000    277.29708    329.78493    285.63873   -1.0778713    1.9346358    44.146197    40.122416 
52228000     275.1847    336.22643    281.68835   -1.5334201    1.9182104    54.538079    40.120733 
52232000    274.73971    338.95474    281.59002   -3.0150736    1.7958611    57.364728    40.129542 
52236000    277.39853    325.77996    277.99254   -1.2046424    1.7790436    47.787411    40.130873 
52240000    274.09288    312.38255    273.83395   -1.4193488    2.7851605    38.548594     40.12884 
52244000    273.50083    318.54303    275.44501   -2.3195958    2.5329188    43.098027    40.129918 
52248000    262.98651    317.56495    265.72433   -1.2641144    2.2149187     51.84062     40.11923 
52252000    269.86371    339.02383    251.93416    -2.071957     2.976347    87.089677    40.129314 
52256000    271.45908    311.99315    278.62139   -0.8599632    1.7453922    33.371761     40.12363 
52260000    271.80844    314.96919     271.5451  -0.24976253    1.4073666    43.424086    40.135949 
52264000    266.54473    325.82136    264.59163  -0.55553143    3.0367596    61.229726    40.135347 
52268000    268.35719    321.20429    264.54379  -0.53821787    3.0816644    56.660498    40.135538 
52272000    274.21978    342.71446    275.15519   -1.7448248    2.1774687    67.559273    40.136922 
52276000    265.40897    317.00386    269.23843  -0.91881523    2.1165716    47.765437      40.1432 
52280000    269.34114     332.9961    272.22113   -1.2067258    1.6866834    60.774965    40.132082 
52284000    268.98455    302.72311    277.45495   -0.1187381    2.1451331    25.268167    40.113306 
52288000    275.50551     320.2176    293.00461   -1.5569156    1.3805561    27.212997    40.114876 
52292000    281.56883    347.38968    288.69404   -1.2101805    1.3887104    58.695636    40.111153 
52296000    278.93371    326.36384     298.5916    -1.768742    1.0359107     27.77224    40.106139 
52300000    265.43797    321.26679    274.42669   -2.7213875    2.2975465    46.840104     40.10481 
52304000    269.08373    326.98198    268.86133   -2.4434904    2.2967916    58.120648    40.095825 
52308000    271.13153    333.12093    271.21665   -1.3054403    2.5354175    61.904284    40.087746 
52312000    267.29833    310.83166     281.6942   0.23051762   0.54128717    29.137462    40.095004 
52316000    260.30122    313.81431    238.76078   -1.2793441    4.2529869    75.053531    40.089901 
52320000    275.67422    324.88821    296.15011   -1.8362063   0.92435581    28.738109    40.094684 
52324000    267.63142    317.37755    278.78175  -0.67338176    2.3813737    38.595808    40.110834 
52328000    266.63277    314.13167    278.73903  0.091889274    2.3421798    35.392639    40.103759 
52332000    268.71378    326.93755    282.29663   -1.7871221    1.9699974    44.640913    40.117483 
52336000    266.32396    288.75013    285.24434    2.0950867    2.1220434    3.5057825    40.116321 
52340000    259.59657     306.6337    249.65655    0.7038764    2.8652435    56.977153    40.142501 
52344000    271.65927    309.84768    279.44449  -0.43522549    1.5266025    30.403197    40.157943 
52348000    277.33026    302.01756    301.08445   0.08280756   0.44964387   0.93310151    40.138788 
52352000    273.56443     316.9591    281.58926   -1.2627275    1.1664723    35.369845    40.130722 
52356000    276.81193     353.8549    251.02805   -3.1147194    2.8173574    102.82684    40.112371 
52360000    274.31621    319.49803    288.41102   -1.5740432    1.1743424    31.087005    40.107412 
52364000    273.03861    335.44801    244.57471    -1.491073    3.3307828    90.873307    40.130199 
52368000    274.19648    345.39712    276.63799    -1.589179   0.95956185    68.759133    40.143863 
52372000    270.76169    311.79788    280.01198  -0.17598546    1.2979223    31.785907    40.152645 
52376000    270.03591    300.86674    278.40167   0.30072237    2.0690459    22.465066    40.170092 
52380000    275.77034    316.61759    296.25517   -1.4206878    1.6884939    20.362418    40.174171 
52384000    266.29655    292.43857    274.72144  -0.11119252    2.4115108    17.717122    40.179668 
52388000    276.71757    321.98543    292.52754   -1.2678288   0.88956747    29.457892    40.180788 
52392000    273.84186    318.91711    283.79797 -0.0082388071    1.9714398    35.119144    40.170277 
52396000    272.38957    326.62809    285.46247  -0.72855765    1.1880874    41.165617     40.17543 
52400000    265.74162     286.3164    286.82641   0.17121502    1.9215081  -0.51000578    40.160181 
52404000    277.51916    337.43325    280.43042   -2.6887725    1.9638765    57.002831    40.161484 
52408000    280.87432    328.59637    295.96383   -1.5721182    1.3275398    32.632538    40.159043 
52412000     275.4086    312.94099    275.56917    1.3739081    2.3120817    37.371817    40.149649 
52416000    273.66938    325.55968    296.08543   0.51007216    1.6625942    29.474251    40.146503 
52420000    278.44273    331.41071    295.09359  -0.21371815   0.52373209     36.31712    40.137426 
52424000    263.41742    316.73494    268.64696   0.42687437    2.6975444    48.087981    40.165332 
52428000    266.72287     327.0345    264.00242 -0.022308112     3.139492    63.032081    40.178633 
52432000    271.74732    326.44359    282.61902  -0.62970468     1.966616    43.824576    40.183949 
52436000    271.04583    301.75326    288.93546    1.0484039    1.1520304    12.817794    40.179937 
52440000    271.42693    311.26089    294.83807   0.29130118    2.0373922    16.422813    40.180928 
52444000     267.7391    307.12059     274.3998   0.40611794    1.7613768    32.720792    40.177085 
52448000    272.13636    324.49858     272.6504  -0.23486916    1.9587938    51.848183    40.160368 
52452000    267.74722     321.5586    275.16954   -1.3138395    1.8621053    46.389061     40.15297 
52456000    275.02481    330.87934    280.62171   -1.2781732   0.18014377    50.257637    40.160845 
52460000     264.2365    309.23836    280.03326   0.56277986    1.3700559    29.205106     40.15754 
52464000     274.8916    318.94092    270.57473  -0.44087861    1.5420516    48.366188    40.149607 
52468000    264.59228    308.50336    290.87291    0.1227818   0.63317268    17.630447    40.144608 
52472000    265.69224    308.95224    268.74102   0.01774403    2.6423804    40.211212     40.13264 
52476000    266.21258    313.53279    271.06081   -0.9463771    2.7827782     42.47198    40.129862 
52480000    267.95092     322.6761    268.46493   -1.0852484    2.9093262    54.211176    40.136795 
52484000    258.70158    292.01298    261.40048   0.59436236     2.472152    30.612496    40.115791 
52488000    265.05405    312.54787    279.73902  -0.86297237    1.0952199    32.808845    40.109496 
52492000    275.34114    336.56299     280.5985   -2.8625228    2.7617619    55.964489     40.11982 
52496000      266.117    312.93019    268.92587  -0.38570404    3.1027022    44.004317    40.115958 
52500000    274.09358    308.07038    290.74432  0.049519592    1.8981641    17.326056    40.105272 
52504000    276.66366     325.4918    293.06585  -0.52329102    1.3592801    32.425948    40.098684 
52508000     279.3122    331.76658    285.97154  -0.40496974    1.7895211    45.795044    40.100969 
52512000    274.86356     329.6793    276.68577   -1.9838183    1.6642594    52.993527    40.117356 
52516000    273.55456    317.13736    282.44004  -0.79926753    1.1274133    34.697328    40.120592 
52520000    276.90392    324.50883     277.2712   -1.3171729    1.8031318    47.237636    40.110657 
52524000    275.51394     324.6254    280.39192   -2.2186972    1.3845912    44.233471    40.113658 
52528000    278.52898    325.55524    294.21328   -2.0900938    1.2490267    31.341956    40.113248 
52532000    279.39054    315.32866    281.05369    -1.346033    1.0666242     34.27497    40.109807 
52536000    276.21375    314.69611    289.59024  -0.19905936   0.89521371    25.105862    40.105719 
52540000    271.55074    303.32378    285.58996   -2.1619048    1.4038278     17.73382    40.084893 
52544000    273.59559    309.48664    283.21191   -1.0225996    2.1050782     26.27473    40.078095 
52548000    276.28021    322.10474     284.6682   -2.6000754    1.8033841    37.436549    40.079235 
52552000    276.68491     327.0421    273.31501   -2.6193813    1.1744988    53.727084    40.080318 
52556000    276.50158    324.87195    292.72575   -1.7041232   0.90904864    32.146199    40.085493 
52560000    275.45366    319.65682    274.39544   -2.4846198  -0.40709103     45.26138    40.087615 
52564000    274.47888    322.25855    281.87747    -2.144314   0.48681712    40.381084    40.084212 
52568000    274.09415    293.02668    271.07624  -0.40708355    1.4631862    21.950439    40.088886 
52572000     271.5175    301.64243    272.33378   -1.9219652   0.75796241    29.308654    40.083211 
52576000    280.77256    320.60147    288.32093   -2.4668731   0.47580244    32.280538    40.074072 
52580000    276.53283    326.14991    267.22274   -2.5158659    1.6329902    58.927175    40.066431 
52584000    280.94338    308.77602    303.50567  -0.79889041  -0.43087604    5.2703549    40.074101 
52588000    277.15874     324.0681    290.62891   -2.0560818   0.79729678    33.439195    40.063478 
52592000    279.11224    321.44558    290.78055   -2.5490897   0.46284486    30.665022    40.067255 
52596000    275.86059    299.32139    292.24743  -0.94775234   0.25369947    7.0739585    40.060808 
52600000      274.525    297.06563    280.34896   -1.3231029    1.2565385     16.71667    40.061513 
52604000    274.35267    327.18649    265.25305    -1.522426    2.2124214    61.933445    40.061926 
52608000    270.54016    310.04617    281.36621   0.32717309    0.3041295    28.679962    40.063566 
52612000    276.99805    325.84997    280.00095  -0.72956362    0.7460066    45.849018    40.048169 
52616000    277.93681    322.76737    290.83745   -1.8175883   0.45286186    31.929919    40.039724 
52620000    271.39874    311.82895    267.45433  -0.29573738   0.90354832    44.374622    40.034939 
52624000    265.97993     304.3869    262.26398  -0.41371879   0.99675257    42.122924    40.018534 
52628000    278.17018    336.03513    275.01893   -2.6671041   0.49018732    61.016205    40.014121 
52632000    280.11748    317.09844    298.10619  -0.54154561  -0.36702661    18.992248    40.003686 
52636000    275.92445    329.80925    284.46303   -2.6158116   0.69937241    45.346227    39.999209 
52640000    281.92495    307.20231    308.58436  -0.63779126  -0.12485605   -1.3820444    39.999632 
52644000    266.78725    303.13615    280.66285  -0.56063866    1.1058864    22.473302    39.993639 
52648000    269.02019    308.25441    274.46294   0.10962324    1.5594563    33.791476    39.982825 
52652000    278.25544    342.57614    276.01425  -0.95107528     1.631518    66.561893    40.003411 
52656000    282.91936    339.53158    280.80787   -1.6982188    1.6053343    58.723711    40.010032 
52660000    269.56034    319.96805    264.40719   -1.6097259     2.009938    55.560864    39.998297 
52664000    274.32183     330.4502    282.42561   -3.9103221    1.0644389    48.024598    40.001885 
52668000    270.60489    327.78704    278.66537   -1.9389571    2.3451745    49.121673    40.002114 
52672000    270.99707     329.8853    267.45131   -1.8449986    2.0240397    62.433992    40.005101 
52676000    268.71602    321.85557    283.80271  -0.90209867    1.7847691    38.052863    40.006086 
52680000     270.3399     305.0358     285.6472  -0.36316912    2.4096589    19.388609    39.997414 
52684000    276.35117    342.35639    277.23416   -2.7670401    1.7439024    65.122229    39.984252 
52688000    271.41788    329.23198    266.16041   -3.3039293    2.7062248    63.071568    39.990082 
52692000    273.95119    335.58236    276.19535   -3.8399781    2.4670504    59.387004    39.983309 
52696000    272.69527    321.84527    267.62861   -2.6254718    2.8141241    54.216662    39.990581 
52700000    276.50917     328.9447    301.26377   -2.8639409   0.94506086    27.680929    39.990975 
52704000    267.51723    308.09502    272.10835   -1.9585726    4.0803109     35.98667    39.985476 
52708000    283.52453    344.72664    294.27943   -3.9765594     2.172692    50.447212    39.989873 
52712000    271.41593    325.49626    283.27173   -3.4197941    3.1714628    42.224524    39.993521 
52716000    276.23903    334.11324    276.02983   -3.5760403    3.7564291    58.083407    39.988358 
52720000     282.1531    339.92613    306.10905   -2.5935816    1.1949758    33.817079    40.012006 
52724000     281.4773    320.88524    298.91228   -2.0615204    1.6032443    21.972969    40.009397 
52728000    272.78238    314.76186    266.61879   -1.6440081    2.8274151    48.143065    40.013636 
52732000    268.27961    321.23145    276.19159   -2.6515286    2.0034602    45.039859     40.01625 
52736000    274.62136    324.33693    282.74088   -2.8474146    1.4921659    41.596052    40.020555 
52740000    269.64187     322.1304    278.39179   -2.3436842    3.5980659    43.738616    40.022977 
52744000    281.55233    333.17006    293.20391   -2.3139243    2.6762898    39.966154    40.028748 
52748000    270.68809    342.17987    266.52718   -2.8149688    3.2573663    75.652692    40.032312 
52752000    277.68662    346.23414    283.19429   -3.3035602    2.4631554    63.039857    40.045784 
52756000    271.88352    320.24834    267.18203   -2.8754446    3.0337037    53.066306    40.045994 
52760000    274.14205     322.3552    266.77441   -3.1491411    2.4250045    55.580787    40.045811 
52764000    258.77377    281.60889    263.39052   -2.1535217    2.8595262    18.218367    40.037058 
52768000    274.54334    321.42697    282.91178   -3.6018914    2.6236768    38.515184    40.035254 
52772000    271.54138    329.30125    266.21318    -2.850901    3.5345001    63.088064    40.039995 
52776000    273.45484    334.56544    264.97438   -2.7981942    3.7519295    69.591055    40.049548 
52780000    281.87475    337.21729     278.8297   -2.7410477    3.5531865    58.387586    40.054336 
52784000    270.16613    308.46766    262.37376  -0.29887181    4.3371502    46.093902    40.053135 
52788000    281.34463    318.02558    294.54249   -0.9502135    2.5978592    23.483098    40.046123 
52792000    280.03833    334.06395     281.8539   -2.6492722      1.97766    52.210051    40.057338 
52796000    266.59575    324.24198     255.6537   -2.4916609    3.2837084    68.588284    40.052368 
52800000    274.39585    323.65563    292.64904   -3.6072542    1.9173246     31.00659    40.044173 
52804000    282.81647    340.64523    292.07439   -1.9301832    2.4034795    48.570833    40.046453 
52808000    280.71213    316.12488    305.12864   -1.8538858    1.7306112    10.996245    40.041792 
52812000    275.96143    325.29243    291.94973   -2.5469205    1.7341973    33.342698    40.042805 
52816000    277.07482    330.22703     299.7369   -2.5872026    1.8932066    30.490125    40.039854 
52820000    278.99031    330.71374    265.21349   -3.1362632    2.8481835    65.500253    40.039208 
52824000    283.58306    327.57719    281.23261   -3.0173791    2.8876138    46.344577    40.040997 
52828000    282.28637    326.60135    283.12404   -2.5023995    2.3516709    43.477308    40.040675 
52832000    279.03045    314.18889    286.50641   -2.3411824    2.5742014    27.682476    40.034294 
52836000    273.95552    318.58635    274.03725   -2.2501212    3.4420283    44.549102    40.030023 
52840000    273.28659    331.23618    273.14829   -3.1609398     3.412585    58.087894    40.027303 
52844000    273.94343    306.90966    285.07069   -2.6462854    2.6063392    21.838973    40.042553 
52848000    281.95942    346.27899    267.16343   -5.0778071     3.504032    79.115563    40.039577 
52852000    269.42314    303.60578     277.7961   -2.0375759     2.853251    25.809682    40.040213 
52856000    278.90272    343.94071    261.18116   -4.8422775    3.2316789    82.759542    40.050623 
52860000    279.77914    335.32716    279.15872   -3.9437814    2.4491563    56.168443    40.063016 
52864000      273.484    333.57081    266.78589    -4.676723    2.1542759    66.784925    40.062846 
52868000    281.05811    325.49856    297.63709    -3.738369    1.5146314    27.861476    40.081134 
52872000    274.17852    282.29581    299.83633   -2.4225704    1.6852741   -17.540525     40.08516 
52876000    277.49147    322.38442    277.13334   -3.9795164    3.6576953    45.251073    40.086021 
52880000    273.29292    303.39122    282.88808    -4.002285    3.5596802    20.503146    40.071924 
52884000    273.43813     305.6745      278.239   -3.3522344    3.7767666    27.435499    40.071472 
52888000     284.7471    340.70495    275.29126   -5.3777461    4.1588146    65.413683    40.078172 
52892000    273.65929     312.3822    270.66973   -3.4105829    4.7264517    41.712465    40.077814 
52896000    285.94274    341.69334    286.00506   -5.3279236     2.452362    55.688271    40.083767 
52900000    284.07089    313.64989    295.39821    -3.233874    3.4307323     18.25168    40.093785 
52904000    267.24852    297.62044    273.04284   -2.2035213    3.9392577    24.577596    40.094027 
52908000    269.48114    320.02701    277.55995   -4.6051527    3.8665581    42.467059    40.102801 
52912000    269.39158    313.96163    281.92423   -4.4862478    3.2219928    32.037402    40.107161 
52916000    274.96924    330.72564    264.77241   -5.5143721    3.6439759    65.953224    40.120854 
52920000     264.8919    311.37212    273.02679   -3.6678816    3.4742392    38.345335    40.120012 
52924000    279.45345    318.99135     291.7836   -3.7066438    2.6672098    27.207756     40.12017 
52928000    275.91912    322.61182    277.36499   -3.5008103    2.7943368    45.246831    40.131697 
52932000    278.52761    323.94822    289.03634   -4.4680736    2.8341406    34.911887    40.122958 
52936000    273.01154    319.58933    256.52685   -3.8706502    3.6418732    63.062472    40.128521 
52940000    276.85811    308.11618    293.19696     -3.11835    1.1161258    14.919217    40.135094 
52944000    279.28187    339.32376     284.3424   -4.2239115    2.6144555    54.981368    40.128759 
52948000    277.32075    317.86395    286.98955   -3.1651115    2.9919084    30.874401    40.122085 
52952000    266.63785    323.55092    272.65495   -6.0581797    4.9915611    50.895976    40.121506 
52956000    270.66361    321.08454    284.00596   -5.8693922     4.001082    37.078587    40.113764 
52960000    267.55302    313.79122    262.33963   -4.2249085    4.9226692    51.451591    40.106605 
52964000    266.86834    309.55406    281.66302   -4.0965856    4.9416243    27.891041    40.110008 
52968000    272.05548    303.13004    291.28682   -4.1708784    4.7266918    11.843218    40.100846 
52972000    267.71684    306.91755    269.99752    -3.707919    4.6869868    36.920027     40.10845 
52976000    278.69342     336.4772    288.48349   -5.1459606    4.6657799    47.993709    40.102147 
52980000    271.01421    322.50629     271.9498   -5.1643103    4.4408306    50.556492    40.103486 
52984000     276.9824    311.73959    289.74141    -3.638132    3.2922595    21.998185    40.110553 
52988000    271.59872    326.40695    276.72738   -3.8602127     4.077129    49.679569    40.109476 
52992000    276.06907    321.75741    271.95008   -4.1739566    3.2759427    49.807326    40.108578 
52996000    272.86628    320.00696    304.02054    -3.467757    1.4304294    15.986416    40.096293 
53000000    276.24907     319.0064    281.94594   -3.3098581    2.7024706    37.060463    40.102536 
53004000    273.87051    333.65803    285.42127   -3.7864333    2.0025083    48.236754    40.101253 
53008000      261.945    297.12587    254.48684   -2.9942192     3.927232    42.639032    40.099802 
53012000    279.19877    326.71739    292.92463   -3.0250149    2.2428908    33.792764    40.103836 
53016000     255.5412    299.59231    267.20626   -1.2086035    3.2386444    32.386053    40.108888 
53020000    265.12474    304.28934    262.86855   -1.9980109    4.1643682     41.42079    40.108555 
53024000    272.62066    325.40801    287.93381   -3.0261955    2.7946026    37.474198     40.12982 
53028000    271.52881    325.96526    277.58242   -2.9269179    3.2185528    48.382845    40.130299 
53032000    272.51972    325.46456    271.77923   -3.3033669    3.5687575    53.685337    40.141961 
53036000    273.55724    316.12372    279.93146   -3.0374375    4.0976517    36.192255    40.142116 
53040000     270.0461    308.92693    290.31478    -2.778541    2.7737487    18.612151    40.135722 
53044000    273.01461    314.44298    278.70014   -3.0302875    3.6915078    35.742833    40.138091 
53048000    270.84506    329.92138    278.70916   -2.7398594    3.6321222    51.212216    40.140479 
53052000    276.18792    314.58699    285.36935   -2.6635079    2.8848512    29.217639    40.141306 
53056000    264.79137    298.41774    268.75425   -2.7312352    4.1614827    29.663498    40.149008 
53060000    276.46577     325.4371    276.96356   -2.6544542     3.777513    48.473538    40.139369 
53064000    265.72856    310.81224    248.86134   -2.1060195    4.8067381    61.950894    40.139567 
53068000    275.79666    322.02041    292.03671   -3.7241877    2.5012817    29.983695    40.139647 
53072000     272.4553    314.06503    275.72083   -2.8262189    4.0391709    38.344201    40.130743 
53076000     271.1512    320.64419    279.59934   -3.8876078    3.8040362    41.044855    40.126414 
53080000     279.5224    330.85306     298.3585   -4.0641285    2.7689985    32.494555      40.1232 
53084000    265.86435    320.06102    273.86256   -4.2666156    4.0579683    46.198459    40.136131 
53088000    277.27242    335.14078    289.04649   -3.3114339    2.8492731    46.094289    40.129208 
53092000    270.40055     308.4201     284.3029   -1.2446989    2.9102261    24.117197    40.131513 
53096000    277.26462    328.23455    282.19345   -2.4676912    5.5749841      46.0411    40.129784 
53100000    269.11148    303.76004    292.02463   -1.6609189    3.2533067    11.735413    40.126978 
53104000    273.86402    309.69652    286.52617   -2.0970577    3.6746987    23.170357    40.131135 
53108000    275.79963    321.85716    289.62242   -2.4011503    3.3692673    32.234739    40.125696 
53112000    278.97622    339.49788    292.81942   -2.9659698    2.5056058    46.678458    40.127954 
53116000    273.92379    299.10975    294.64728   -1.9802109     3.493707    4.4624729    40.129671 
53120000     266.6045    303.82521     275.7187   -2.4184891    4.2184811    28.106505    40.127543 
53124000    265.40567    292.36009    297.39211   -1.8780023    2.5328455   -5.0320267    40.125985 
53128000    268.15392     323.3768    281.72147   -2.9450453    3.0993099     41.65533    40.135164 
53132000    270.21727    309.67588     271.5327   -1.1161694    3.8501244    38.143179    40.129893 
53136000    273.81012     356.6851    271.40654   -3.9141229    4.5901852    85.278559    40.128259 
53140000    266.65885    317.36013    262.43928    -2.200618    4.2111746    54.920858    40.130992 
53144000    262.65388    302.80563    277.27302   -1.2585235    2.7609716    25.532608    40.127275 
53148000    267.89803    314.34036    289.39385   -1.9673236    2.4150025    24.946514    40.140973 
53152000    273.88964    331.77665    268.45877   -2.7718982    4.5946883    63.317887    40.125195 
53156000    267.06106    328.32804    282.24916   -2.2910104    3.9555523    46.078881    40.127349 
53160000    272.23389    325.81881    263.09365   -2.3651801    5.2823316    62.725156    40.124901 
53164000    269.88354    325.87427     277.6611   -2.3152908    3.8315327    48.213165    40.114484 
53168000    257.46453    299.61994    260.47444   -1.9930703     5.195314    39.145503    40.121393 
53172000    271.98551    325.71333    293.83774   -3.0740135     3.599226    31.875596     40.13322 
53176000    274.40377    332.37862    287.63027   -3.2315924    4.0433715    44.748352    40.141494 
53180000    267.69724    307.34067    293.39483   -2.6296027    2.8631266    13.945843    40.149928 
53184000    267.64907    313.59012    276.53082   -2.6827262    3.7474109    37.059297    40.148229 
53188000    272.59374    348.84976    273.07481   -4.0699259    4.5684356    75.774943    40.147932 
53192000    268.52475    324.43972    285.22907   -2.7614255    3.9552503    39.210649     40.14981 
53196000    269.55089    313.34687    274.92447   -2.1843776    3.5372214      38.4224    40.147206 
53200000    269.56291    316.21186    266.77021   -2.1877491    3.5909506    49.441656    40.145734 
53204000    284.29552    327.97746     294.8029   -1.9298997    2.1429072    33.174559    40.138667 
53208000    265.64427    293.47365    296.41233   -1.3330725     2.273641   -2.9386848    40.136064 
53212000    272.58095    305.92731    292.64579   -1.5716075   0.95083076    13.281521    40.142511 
53216000    268.41271    313.30506    267.36239   -1.8549063    2.7294879    45.942673     40.13923 
53220000    273.02308     317.3534    280.31945   -1.4297333     3.244498     37.03395    40.143088 
53224000    273.47952    318.85804    292.77594   -2.2448787    2.3343127    26.082106     40.14381 
53228000    264.65719    317.11093    255.57462   -2.0503453    4.0570416    61.536307    40.145065 
53232000    282.22605    332.37626    289.64511   -3.3955172    3.2845007    42.731155    40.142413 
53236000    272.27134    324.70277    276.06126    -2.000256    3.5157717    48.641506    40.150776 
53240000    280.55285    353.46495    286.38565   -5.0069867    3.3501314    67.079303    40.148621 
53244000    263.76045    309.78415    260.65558   -2.6007199    5.2307547    49.128569    40.144612 
53248000    270.29133    326.52618    280.11604   -2.6611389    3.9890766    46.410139    40.139935 
53252000    270.01467    313.12876    292.19536   -1.7932534    3.0500489    20.933398    40.150928 
53256000      270.225    311.58189    291.02655   -2.2220819    1.9851323    20.555344    40.160155 
53260000    272.08137    325.01325    273.10992   -2.4183255    2.3999991    51.903339    40.164429 
53264000    276.74299    361.52859    272.49584   -4.0802735    3.2748607    89.032753    40.170461 
53268000     275.9454    327.52163    291.71483   -2.4619486    3.3320108    35.806798    40.166908 
53272000    266.44567    299.47652    288.76062   -1.8512929    3.3864678    10.715905    40.163239 
53276000    267.19791     307.6299    264.53059   -2.2044925    4.8105941    43.099315    40.169536 
53280000    262.66346    317.27841    257.91328   -3.5232248    5.0470928    59.365131    40.169368 
53284000    272.20711    333.52424    261.32214   -3.4631099    5.5109853    72.202095    40.178027 
53288000    262.28231    283.73363    285.77772   -2.0970299    4.1968688   -2.0440954    40.175426 
53292000    263.74196    314.58552    258.65457     -2.73634    5.4174522    55.930948    40.179158 
53296000    267.72757     301.4068    262.10934   -1.6309584    5.1834806    39.297457    40.180402 
53300000    273.95452    309.06401     297.9135  -0.98266422    3.5431882    11.150504    40.186082 
53304000    278.46483    331.65451    292.95953   -2.5863846    2.7672056    38.694978    40.180007 
53308000    275.29449     339.9044    284.91729   -3.9781172    3.3413352    54.987111    40.178708 
53312000    274.28926    329.99369    276.16616   -3.3897833    4.1010562    53.827531    40.174819 
53316000     281.3797    331.19227    281.14874   -3.3185954    3.8752983    50.043526     40.17971 
53320000    276.72033    328.18212    285.95247   -3.7446313    3.7140581    42.229644    40.174315 
53324000    273.08972    313.11512    281.77538   -2.3392439    5.1541134    31.339738    40.173507 
53328000    290.60772    333.95348    320.67238   -2.9870958    2.8727411    13.281095    40.161779 
53332000    265.71616    308.24397    268.48272   -1.6519973    4.0146251     39.76125    40.157355 
53336000    270.61207    319.33128    267.91483   -2.2016023     3.904512    51.416448    40.167206 
53340000    273.84555    343.29935    279.76199   -2.9184545    4.6215774     63.53736    40.165097 
53344000    282.13953    354.48222    292.42357   -4.9233294    4.0718785    62.058644    40.170135 
53348000    257.53617    320.04157    254.94517   -3.1028657    4.5828522    65.096403    40.169537 
53352000    268.30008    319.04842    281.43617   -3.1451971    3.4164643     37.61225    40.165493 
53356000    272.40759    300.79264    275.57032   -2.9076964    3.9800007    25.222323    40.165974 
53360000    263.98917    304.13641    277.27742   -4.0830197     3.923846    26.858988    40.164942 
53364000    275.97675    329.41299     290.4966    -4.072629    3.1558994    38.916384    40.158276 
53368000    273.35086    316.05217    294.13894   -3.7068242     3.237624     21.91323    40.154557 
53372000    279.65042     327.8305    292.68789   -4.4799977    3.4953409    35.142606    40.155529 
53376000    267.92293    297.89239    268.44825   -2.0082845    4.9191023    29.444138    40.148136 
53380000    273.21684     327.1834    263.88794   -3.8915241    4.9163311    63.295466    40.142148 
53384000     267.1564     314.5272    268.55295   -3.2110555    5.2653957    45.974249    40.136247 
53388000    275.19119    339.40477    294.85904   -5.2000039    3.8101269    44.545729    40.134818 
53392000     278.4855    331.95349    280.53733   -3.7908866    4.0032036    51.416164    40.137249 
53396000    274.71491    327.81329    286.08137   -2.9618105    5.3701257    41.731918    40.140611 
53400000    268.81794     321.1388    274.28327   -2.7963917    4.3274121    46.855534    40.143927 
53404000    273.62578    325.73758     281.0469   -3.9104514     4.002562    44.690674    40.142433 
53408000    274.31397    327.16941    300.84075   -3.4169705    3.9610507    26.328657    40.140234 
53412000    256.46395    298.43755     245.5852   -1.5760561    6.3901335    52.852352    40.135931 
53416000    273.05308    331.74445      283.124   -3.3769748     3.866646    48.620455     40.13786 
53420000    273.36566    327.82846    263.61825   -3.8483624    5.3291335    64.210213    40.135318 
[...]
66504000    270.21805    313.34281    293.65369    -29.82452    29.452946    19.689124    40.116723 
66508000    272.04609     318.2979    281.91294   -30.223948    31.600089    36.384963    40.117762 
66512000    269.44573    315.54292    281.56348   -31.713015    31.422623    33.979439    40.117338 
66516000    262.87689    306.26571    261.17818   -28.715241    33.934596    45.087527    40.118334 
66520000    265.29567    304.70003    285.27109   -29.769304    31.891908    19.428945    40.116933 
66524000    271.92373    307.09415    287.26344   -30.458456    32.124768     19.83071    40.117511 
66528000    265.51098    302.97851    276.56091   -29.816792    32.633392    26.417599    40.118091 
66532000    274.01263    334.50594    269.75683    -32.63465     32.93705    64.749112    40.119025 
66536000    268.95232    326.79307    267.90679   -30.159122    32.899592    58.886278    40.119897 
66540000    259.90217    309.21921    272.00194   -29.365383    31.869457    37.217278    40.119439 
66544000    277.60927    320.17534    296.98759   -31.363217    31.653414    23.187749    40.120625 
66548000     270.9683    316.40824    293.40753   -30.660978    31.224982    23.000711     40.12122 
66552000    268.66665    324.59725    278.65386   -31.584623    31.757027    45.943384    40.121751 
66556000    265.45515    311.13966    283.98147   -30.751906      31.9241    27.158188    40.120928 
66560000    271.27218    328.92858    288.56067   -31.921006    32.362445     40.36791    40.120266 
66564000     274.5886    325.36489    291.54504   -31.749372    31.385932     33.81985    40.121062 
66568000    280.35623    317.35644     293.0046    -31.93051    31.612641    24.351837    40.122755 
66572000    277.19753    330.42493    292.08367   -32.489656    31.084622    38.341261    40.122933 
66576000    270.85772    324.62375    290.70565   -31.034483    32.232159    33.918094    40.122488 
66580000    266.04717    300.87988    276.20009    -29.95094    32.526335    24.679786    40.122071 
66584000    271.86858    323.94257    287.08328   -31.965086    31.760038    36.859296    40.122439 
66588000    279.18237    332.17627    288.26584   -32.048294     32.25995    43.910432    40.121688 
66592000    268.42983     331.6909    261.05191   -32.478636    32.007697    70.638988    40.122079 
66596000    268.77455    327.22399    275.55276   -31.755229    31.600592    51.671234    40.121264 
66600000    273.94656    318.57206     301.1732   -30.123465    30.896457    17.398856    40.121375 
66604000    276.33073    328.04618    269.70496   -31.517482    32.370452    58.341226    40.121696 
66608000    277.86634    323.14373    296.09836    -32.36124    30.402245    27.045364    40.121619 
66612000    265.50066    300.46317    284.29391   -30.412691    31.103755     16.16927    40.121944 
66616000     266.2001    315.16614    271.09747    -30.73513    32.641593    44.068678    40.121857 
66620000    272.39799    301.09393    294.13449   -30.309263    30.530241    6.9594474    40.121377 
66624000    272.60665    311.28728    286.39877   -30.032488    30.153274    24.888503    40.122637 
66628000    285.19333    326.54293    299.15349   -32.093305    30.654975    27.389444    40.121235 
66632000    274.84411    309.12312    286.45811   -31.847349     31.49477    22.665016     40.12001 
66636000    261.13271    300.80808     279.7013   -32.132816    31.993124    21.106783    40.121397 
66640000    263.66158    284.20469    270.25161   -30.485669    32.450635    13.953084    40.120827 
66644000    266.85141     312.1763    265.45365   -32.353083    32.903644    46.722651       40.121 
66648000    279.37454    346.56765     271.4603   -34.828936    31.844635    75.107353    40.121162 
66652000      270.311    320.75989    281.08437   -32.402881    31.210869    39.675512    40.121687 
66656000     275.1946    328.62384    272.95311   -32.447113    32.508608    55.670735    40.121613 
66660000    264.39321    314.80548    263.93087   -30.610338     32.74003    50.874608    40.120762 
66664000    264.11735     302.0642    274.56101   -30.840023    32.734726    27.503191    40.120319 
66668000     270.1911    307.93347    275.17526   -31.361649    33.464931    32.758217    40.119489 
66672000    275.34633    334.87441    276.86208   -32.095904    32.565281    58.012331    40.120055 
66676000    270.46118    311.65079    289.94669   -31.045924    31.602927    21.704107    40.121244 
66680000    278.93247    325.68589    293.36597   -31.485667    30.143033    32.319914    40.121075 
66684000    278.55968    336.47588    310.29236   -31.451316    30.555256    26.183524    40.121189 
66688000    265.13936    307.64223    257.48672   -30.398343    33.205491    50.155512    40.121342 
66692000    268.31361    305.40287    276.80187   -29.734033    33.333527    28.600997    40.122061 
66696000    270.83168    323.42366    272.85087    -32.58777    33.456213    50.572793    40.122348 
66700000    259.21898    299.84668    262.84173   -30.915738    32.678393    37.004948    40.121996 
66704000    280.55954    313.89039    308.20755   -31.231336    30.790737    5.6828341    40.121339 
66708000     278.7309     327.1562     281.2022   -32.501477     31.83692    45.953999    40.121258 
66712000     270.9462    322.22134    297.66162   -31.633827    30.603815    24.559724    40.119754 
66716000    262.48467    296.30455    277.64228   -30.404839    32.108412    18.662268    40.120462 
66720000    273.74032     325.7804    277.88185    -31.86267    32.932406    47.898544    40.120539 
66724000    269.01898    328.54563     262.3737   -31.859635      33.4644    66.171935    40.119774 
66728000     276.4587    329.61254    288.65372   -31.620121    31.341307    40.958816    40.119641 
66732000    277.70251    336.49346    293.04014   -31.698758    32.244708    43.453322    40.119838 
66736000    273.63116    322.31193    297.41061    -30.90349    31.421587    24.901312    40.119343 
66740000    274.52274    338.42836    269.65775   -33.111058    32.436277    68.770611    40.119559 
66744000    276.91529    322.41528    269.91207   -32.288816    32.243674    52.503209    40.117923 
66748000    270.79836    320.55851     272.3852   -31.172178    33.002636    48.173311    40.117198 
66752000    264.12436    320.71731    267.85683     -30.5254    33.010126    52.860479    40.116597 
66756000    278.61175    327.45236    289.64281   -31.032991    31.589644     37.80955    40.117399 
66760000    273.58834     310.6309    277.64812   -30.112169    32.839163     32.98278     40.11737 
66764000    275.02136    334.12778    291.16026   -31.030531    32.644793    42.967516    40.117143 
66768000    265.12008    306.86043    272.11645   -29.348321    33.160497    34.743975    40.118865 
66772000    269.44055     302.3557    301.41231    -30.28215    32.014037   0.94339455    40.118391 
66776000    271.95972    324.46033    287.94293   -31.530009    31.881327    36.517408    40.118562 
66780000    280.65861     325.2212     290.4949   -31.375749    31.376971      34.7263    40.118504 
66784000    275.04995    336.75833    290.86113   -32.008006    32.380048    45.897205     40.11897 
66788000    271.61207    316.76991    267.48435   -31.075944    33.767426    49.285557    40.119228 
66792000    270.38241    302.05769    289.44225   -30.997979    31.584818    12.615444    40.118389 
66796000     268.6985    316.99468    279.39232   -32.271926    32.342007     37.60236    40.118438 
66800000    283.11172    320.80377    310.13453   -32.888937    31.005054    10.669242    40.118707 
66804000    265.66164    298.12786    274.08459   -31.625146    32.822764    24.043273    40.116895 
66808000    272.34377    319.02962     281.8375   -32.721951    32.223846    37.192121    40.116076 
66812000    266.40105    313.00483    261.84837   -31.741345    34.357364    51.156457    40.116463 
66816000    269.26198    300.67782    284.16098   -32.218642    33.395629    16.516838    40.116257 
66820000    267.33004    322.84823    279.17476   -32.771991    32.223094    43.673471    40.116462 
66824000    278.96311    324.33231    290.20384   -32.801028     31.58313     34.12847    40.115795 
66828000    266.53653    315.90825    282.16987   -32.738713    31.648202    33.738384    40.115894 
66832000    276.75429    334.79687    281.93553    -33.09862    33.650349    52.861342    40.115006 
66836000    269.79823    312.50854     262.6343   -31.185771    33.755726    49.874243    40.115537 
66840000    286.59642    361.75914     281.7305   -33.961211    33.040605    80.028641    40.116094 
66844000    271.48254    327.03645    282.00183   -32.445108    32.656276    45.034618     40.11506 
66848000    273.05248    315.68406    282.82881   -31.756849     33.84222    32.855256    40.115464 
66852000    275.18901    326.92883    284.23761   -33.380828    32.067203    42.691214    40.115914 
66856000    273.84418    318.85381    302.23697    -32.97453    31.798162    16.616841    40.115985 
66860000    262.36071    300.50905    273.23206   -31.755181    33.325306    27.276996    40.116349 
66864000    276.64431    312.89691    286.01271   -31.732846    32.425282    26.884197     40.11696 
66868000    273.09007    319.72713    286.54788   -32.451723    31.695116    33.179241    40.116259 
66872000    274.38384    340.58239    275.79282   -33.983992    31.535018    64.789562    40.116947 
66876000    269.53743    301.80086    265.82497   -30.512078     33.37457    35.975888    40.116986 
66880000    281.40349    346.72868    289.50918   -33.422484      32.5235    57.219499    40.116937 
66884000    273.32589    315.59603    288.00574    -31.35658    32.302346    27.590294    40.115302 
66888000    273.91592    316.54088     295.1373   -31.525629    32.036428    21.403581    40.115329 
66892000    273.59034    334.65561    282.94401   -31.446039    33.236446    51.711604    40.115583 
66896000     264.7716    304.61609    285.77086   -30.307014    31.664777    18.845233    40.115657 
66900000    264.95013    325.70676    264.65011   -31.483913    33.573774    61.056652    40.116154 
66904000    268.81918     325.2666    279.55862   -30.411361     32.87248    45.707986    40.116572 
66908000    275.66623    309.28065    281.40231    -31.17587    32.845705    27.878337    40.115986 
66912000     269.2079    328.04918    277.35604   -31.202498    32.447658    50.693141    40.115316 
66916000    264.22504    302.16035    286.30309   -30.036569    31.596717    15.857255    40.113643 
66920000    277.25554    318.32808    286.93382   -29.676251    30.842189     31.39426    40.112461 
66924000    268.20756    306.40593    287.16056   -30.521662    31.224561    19.245375     40.11286 
66928000    268.43664    330.69824    292.12957   -31.205249    31.069105    38.568671    40.111846 
66932000    272.07312    326.14833    271.91476   -31.410504    32.404757    54.233573      40.1105 
66936000    269.67024    301.43221    303.56771   -30.817799    31.047727   -2.1354999    40.110089 
66940000    275.61533    322.19575    274.77905     -31.9761    32.448797    47.416695    40.110372 
66944000    265.99928    313.41071    266.28725    -31.32586    33.416276    47.123459    40.112049 
66948000    269.69679    308.60761    260.73086   -31.566738    34.217843    47.876754    40.111756 
66952000    260.06023    291.01239    282.65634   -30.983745    32.440308    8.3560446    40.110411 
66956000    266.66515     315.9171    270.82377   -31.404953     32.60453    45.093323    40.109921 
66960000     271.9068    312.29322    294.93651   -32.605203    31.039272    17.356707    40.109868 
66964000    269.15201    320.76368    270.86852   -31.852976    32.722839    49.895155    40.110814 
66968000    268.24801    321.43013    265.71591   -32.317514    34.753591    55.714224    40.110636 
66972000    273.09505    323.09346     274.7632   -31.588257    33.260891    48.330263    40.111079 
66976000    266.22234    328.91476    272.04283   -33.781199    32.300412     56.87193    40.112332 
66980000    275.06534    319.62416    291.45213   -31.924369    32.734216    28.172036    40.113584 
66984000    273.39912     331.7593    293.69593   -32.564405    32.058837    38.063376    40.113233 
66988000    263.60477     324.8536    254.94453   -32.650552    34.421968    69.909072    40.113723 
66992000    267.26785    314.69754    262.98719   -30.956898    32.977347    51.710349    40.113347 
66996000    272.72114     322.1805     265.9183   -31.906784    31.933078    56.262204    40.113747 
67000000    269.78146    326.67369    276.84518    -32.47339    31.611468    49.828508    40.113362 
67004000    276.79198    325.82188    297.96844   -33.024986    31.459001    27.853439    40.112838 
67008000    277.48716    321.28704    293.93632   -31.448819    32.036141    27.350716     40.11217 
67012000    268.07935    322.98835    281.93223   -32.426064    32.829313    41.056118    40.112594 
67016000    273.24423    326.81431    288.48702    -31.39878    32.600957    38.327288    40.113947 
67020000    273.01487    321.39266    293.80312   -31.042031    32.643556    27.589532    40.115249 
67024000     272.9787    321.27979    284.05723   -31.193337    33.459028    37.222566    40.114962 
67028000    270.26431    323.92049     275.8486   -31.186675    32.953587    48.071885    40.115013 
67032000    276.70108    341.97175    294.45018   -32.012814    32.568569    47.521577    40.114775 
67036000    262.33607    299.89663    269.42656   -30.197469    33.410896    30.470067    40.115672 
67040000    275.24371     304.1759    296.97635   -31.424427    31.779813     7.199546    40.115296 
67044000    278.16783    322.64048    286.53369   -32.344198    33.125899    36.106793    40.114681 
67048000    270.47224    307.88491    289.86165   -33.224175     31.82362    18.023258     40.11541 
67052000    274.32064    311.22107    286.50913   -33.227316    32.611718    24.711944    40.114605 
67056000    276.55086    339.59666    282.51677   -33.924474    31.874548    57.079895    40.114868 
67060000    271.46864    312.46121    274.68291   -33.782456    32.610653    37.778301    40.114838 
67064000    271.64643    331.41301    265.92428   -33.735681    33.357109     65.48873    40.116048 
67068000    274.84965    330.06939    275.94871   -33.327109     31.42837    54.120679    40.115738 
67072000    280.00698    346.00885    277.16834   -34.011919    32.517007    68.840509     40.11625 
67076000    272.66482    315.18708    264.80482   -33.549534    32.678765    50.382264    40.116877 
67080000    284.19247    340.74443    283.37019   -33.874396    31.730997    57.374245    40.117233 
67084000    266.91463    329.98993    259.34676   -32.608946    31.410035    70.643163    40.117938 
67088000    270.05149     299.2987    308.31873   -31.676537     30.22487   -9.0200301    40.117008 
67092000    275.82249    313.89807    279.78995   -34.282531    31.430654    34.108123    40.117386 
67096000    281.67469    339.29744    276.54233   -35.222138    31.372862    62.755113    40.117042 
67100000    278.78744    314.12248    291.05676   -33.688502    30.432034    23.065719    40.117624 
67104000    276.30456    319.88103    295.98221   -33.841916    30.494126    23.898818    40.117602 
67108000    279.19482    329.11669    283.72054   -33.669469    31.112668     45.39615    40.118139 
67112000    267.36925    311.15383    254.94495   -32.441446    32.052172    56.208882    40.118884 
67116000    280.74718    328.12238    296.73097   -33.207557    30.754315     31.39141    40.118978 
67120000    281.07153    330.27426    276.51794   -33.693181    32.745926     53.75632    40.119911 
67124000    271.97974    323.83638    268.65301   -32.957354    32.806874    55.183371    40.120144 
67128000     279.4955      319.998    294.14969   -33.689941    30.202959    25.848307    40.119614 
67132000     281.5484    348.84129    264.47457   -34.558439    32.292685    84.366727    40.119894 
67136000     277.6414    307.43623    295.53165   -32.610825    31.489524    11.904586     40.11975 
67140000    287.31926    321.63024    329.62281    -33.36387    30.135016   -7.9925709    40.120257 
67144000    276.70093     318.9556    266.50585   -33.258905    33.175295    52.449756    40.121173 
67148000    279.22575    317.21493    289.21058   -33.152377    31.315319    28.004347    40.122125 
67152000    268.95325    303.47092    272.94923   -32.348734    31.413852    30.521688    40.122061 
67156000    267.83486    318.18774    265.12209   -33.410723    32.265351    53.065652    40.121436 
67160000    276.11719    324.80871    300.53145   -32.938286    31.494135    24.277264    40.122302 
67164000    274.21698    308.75174    281.92212   -31.907802    32.420432    26.829614    40.121826 
67168000    270.50345    309.71402     264.6325   -33.676426     33.48825     45.08152    40.122108 
67172000    280.39269    335.25735    285.61179   -34.882539    32.076016     49.64556    40.121075 
67176000    278.50588     316.8166    283.39015   -34.524564    31.791868    33.426451    40.121758 
67180000    278.01112    337.31256    289.09013   -34.476089    31.744474    48.222433    40.121653 
67184000    267.63064    297.29326     275.0477   -32.559671    32.879408    22.245562    40.121464 
67188000    279.89677    329.28085    283.52897   -34.179998    33.210029    45.751876    40.123022 
67192000    285.23057    330.52133    295.32438    -34.59472    31.648088    35.196945    40.123517 
67196000    283.07366    329.77329    315.37428   -35.011171    31.681816    14.399011    40.122247 
67200000    273.68386    308.37032    300.32647   -34.319876    32.310571    8.0438478     40.12111 
67201000    276.50984    301.54892    293.05199   -33.507829    33.019215    8.4969332     40.12111 
Loop time of 22675 on 4 procs for 16000000 steps with 1498 atoms

Performance: 15.241 ns/day, 1.575 hours/ns, 705.624 timesteps/s
99.5% CPU use with 4 MPI tasks x no OpenMP threads

MPI task timing breakdown:
Section |  min time  |  avg time  |  max time  |%varavg| %total
---------------------------------------------------------------
Pair    | 11342      | 15633      | 20118      |3365.9 | 68.94
Bond    | 70.613     | 109.32     | 145.95     | 349.1 |  0.48
Neigh   | 125.86     | 125.88     | 125.91     |   0.2 |  0.56
Comm    | 285.14     | 4412.1     | 8719.1     |6203.6 | 19.46
Output  | 8.2983     | 8.3459     | 8.488      |   2.8 |  0.04
Modify  | 1204.3     | 1853.9     | 2536.7     |1102.8 |  8.18
Other   |            | 532.2      |            |       |  2.35

Nlocal:    374.5 ave 714 max 35 min
Histogram: 2 0 0 0 0 0 0 0 0 2
Nghost:    2374.25 ave 4253 max 496 min
Histogram: 2 0 0 0 0 0 0 0 0 2
Neighs:    13095.2 ave 25971 max 313 min
Histogram: 2 0 0 0 0 0 0 0 0 2

Total # of neighbors = 52381
Ave neighs/atom = 34.9673
Ave special neighs/atom = 0.518024
Neighbor list builds = 28696
Dangerous builds = 0

write_restart FINALCONFIG
WARNING: Using a manybody potential with bonds/angles/dihedrals and special_bond exclusions (../pair.cpp:218)
Neighbor list info ...
  update every 1 steps, delay 0 steps, check yes
  max neighbors/atom: 2000, page size: 100000
  master list distance cutoff = 16
  ghost atom cutoff = 16
  binsize = 8, bins = 3 3 23
  4 neighbor lists, perpetual/occasional/extra = 4 0 0
  (1) pair lj/cut, perpetual, skip from (4)
      attributes: half, newton on
      pair build: skip
      stencil: none
      bin: none
  (2) pair morse, perpetual, skip from (4)
      attributes: half, newton on
      pair build: skip
      stencil: none
      bin: none
  (3) pair eam, perpetual, skip from (4)
      attributes: half, newton on
      pair build: skip
      stencil: none
      bin: none
  (4) neighbor class addition, perpetual
      attributes: half, newton on
      pair build: half/bin/newton
      stencil: half/bin/3d/newton
      bin: standard

#and everyone lived happily ever after, THE END
Total wall time: 6:36:20
