LAMMPS (16 Mar 2018)
#lammps script for united atom polymer simulation (full-scale run)

# 1. INITIALIZATION
#allows pair, bond, bending and dihedral interactions
atom_style molecular

  # periodic (video game) boundaries in all cartesian directions
boundary p p s

  # uses real units (instead of units based on pair potential parameters).  List of units used in manual
units metal

###########
# 2. ATOM DEFINITION
##########

   ##
   # Read in data from starting configuration file
   ##

#read_data lammps-AT-config

 #use to restart
read_restart RESTART
  orthogonal box = (0 0 -29.1214) to (20 20 152.979)
  1 by 1 by 4 MPI processor grid
  1498 atoms
  197 bonds
  96 angles
  95 dihedrals
  2 = max # of 1-2 neighbors
  2 = max # of 1-3 neighbors
  4 = max # of 1-4 neighbors
  6 = max # of special neighbors

   ##
   # Specify the nature of the bond interactions
   ##

bond_style harmonic
bond_coeff 1 19.51 1.54
bond_coeff 2 22.45 1.82
bond_coeff 3 10000.0 2.0
special_bonds lj 0.0 0.0 0.0 angle no dihedral no

angle_style harmonic
angle_coeff 1 2.683 114.00
angle_coeff 2 2.683 114.40

dihedral_style opls
dihedral_coeff * 0.06071 -0.011743 0.1363628 0.0

mass  1   14.00
mass  2   32.06
mass  3  196.97
mass  4  196.97


pair_style hybrid lj/cut 14.0 morse 14.0 eam
pair_coeff 1 1 lj/cut 0.00395 3.95 14.0
pair_coeff 2 2 lj/cut 0.01594 3.62 14.0
pair_coeff 3 3 eam Au_u3.eam
Reading potential file Au_u3.eam with DATE: 2007-06-11
pair_coeff 4 4 eam Au_u3.eam
pair_coeff 1 2 lj/cut 0.0000 3.785 14.0
pair_coeff 1 3 lj/cut 0.00258 3.44 14.0
pair_coeff 1 4 lj/cut 0.00 3.44 14.0
pair_coeff 2 3 morse 0.879 1.47 2.7 14.0
pair_coeff 2 4 morse 0.000 1.47 2.7 14.0
pair_coeff 3 4 lj/cut 0.00 2.934 14.0


group freeze type 4
100 atoms in group freeze
fix startend freeze setforce 0.0 0.0 0.0



################
# 3.  Simulation Settings
###############

neighbor        2.0 bin
neigh_modify    every 1 delay 0 check yes



# Define some variables
variable Lx          equal xhi-xlo   # Ang
variable Ly          equal yhi-ylo   # Ang
variable Lz          equal zhi-zlo   # Ang

variable dz          equal ${Lz}/30  # Ang
variable dz          equal 182.100820164033/30  

variable zzlo        equal zlo  # Ang
variable zzhi        equal zhi  # Ang
variable vol         equal ${Lx}*${Ly}*${Lz}  # Ang^3
variable vol         equal 20*${Ly}*${Lz}  
variable vol         equal 20*20*${Lz}  
variable vol         equal 20*20*182.100820164033  
variable TEMP        equal 300.00 # K
variable TThi        equal 320.00 # K
variable TTlo        equal 280.00 # K
variable dt          equal 0.00025 # ps

timestep     ${dt}
timestep     0.00025

variable zlo1      equal -26.0
variable zlo2      equal -11.0
variable zhi1      equal 135.0
variable zhi2      equal 150.0

# heat layers

region          hot  block  INF INF INF INF ${zlo1} ${zlo2}
region          hot  block  INF INF INF INF -26 ${zlo2}
region          hot  block  INF INF INF INF -26 -11
region          cold block INF INF INF INF ${zhi1} ${zhi2}
region          cold block INF INF INF INF 135 ${zhi2}
region          cold block INF INF INF INF 135 150
compute         Thot all temp/region hot
compute         Tcold all temp/region cold


# Second Equilibration
fix             1 all nve
fix             hot all langevin ${TThi} ${TThi}  0.005 59804  tally yes
fix             hot all langevin 320 ${TThi}  0.005 59804  tally yes
fix             hot all langevin 320 320  0.005 59804  tally yes
fix             cold all langevin ${TTlo} ${TTlo} 0.005 287859 tally yes
fix             cold all langevin 280 ${TTlo} 0.005 287859 tally yes
fix             cold all langevin 280 280 0.005 287859 tally yes
fix_modify      hot temp Thot
fix_modify      cold temp Tcold

variable        tdiff equal c_Thot-c_Tcold
thermo_style    custom step c_Thot c_Tcold f_hot f_cold v_tdiff
thermo            4000
run             800000
WARNING: Using a manybody potential with bonds/angles/dihedrals and special_bond exclusions (../pair.cpp:218)
Unused restart file peratom fix info:
  fix style: STORE, fix ID: layers_COMPUTE_STORE
Neighbor list info ...
  update every 1 steps, delay 0 steps, check yes
  max neighbors/atom: 2000, page size: 100000
  master list distance cutoff = 16
  ghost atom cutoff = 16
  binsize = 8, bins = 3 3 23
  4 neighbor lists, perpetual/occasional/extra = 4 0 0
  (1) pair lj/cut, perpetual, skip from (4)
      attributes: half, newton on
      pair build: skip
      stencil: none
      bin: none
  (2) pair morse, perpetual, skip from (4)
      attributes: half, newton on
      pair build: skip
      stencil: none
      bin: none
  (3) pair eam, perpetual, skip from (4)
      attributes: half, newton on
      pair build: skip
      stencil: none
      bin: none
  (4) neighbor class addition, perpetual
      attributes: half, newton on
      pair build: half/bin/newton
      stencil: half/bin/3d/newton
      bin: standard
Per MPI rank memory allocation (min/avg/max) = 10.93 | 11.62 | 12.32 Mbytes
Step c_Thot c_Tcold f_hot f_cold v_tdiff 
84001000    327.74787    262.39357           -0           -0    65.354299 
84004000    333.83934    261.93399  -0.50670639   0.68268303    71.905357 
84008000    336.20809    257.78808  -0.04658535   0.21311333    78.420012 
84012000    325.11413    282.35597   0.21213878   -1.2602719    42.758159 
84016000    318.69334     290.1292    0.8801506  -0.94869174    28.564143 
84020000    305.21235    290.02937    1.5258029  -0.91008523    15.182981 
84024000     323.2998    268.50716   0.29674673  0.076290427    54.792636 
84028000    326.35152     276.6972  0.045507622  0.066910267    49.654317 
84032000    338.18626    279.46075  -0.68937238  -0.10824276    58.725506 
84036000    350.70617    262.19503   -0.3741787    1.4442889    88.511146 
84040000    332.53124     271.9134  -0.52215385 -0.025425485    60.617833 
84044000    324.86134    280.55174  -0.44969589  -0.98657316    44.309597 
84048000    341.22718    288.62857 -0.0031121526  -0.54342879    52.598609 
84052000    324.22727    279.08795   0.66859048   -0.9755632    45.139315 
84056000    308.94262    255.61576    1.3028371  -0.83480958    53.326866 
84060000     312.7263    280.50674    1.6444169  -0.24579478    32.219564 
84064000    325.66569    290.57382  -0.39380372   -1.1390169    35.091865 
84068000    317.35956    265.92288   0.83400248   -1.0893971    51.436689 
84072000     321.4049    305.43326  -0.47989219   -2.8356338     15.97164 
84076000     307.2492    285.37943    2.3751467   -1.0840981    21.869779 
84080000    303.57803    284.60449     1.443263  -0.68382083    18.973545 
84084000    341.78997    292.55809   0.65045724   -1.0689092    49.231877 
84088000    346.53158    265.95524   -2.4075187  -0.92349316    80.576344 
84092000    304.26875    272.12513    1.4358236   -1.3540044     32.14362 
84096000    297.89504    275.39663    1.9545438  -0.96091685    22.498403 
84100000    323.49456     284.1642   0.54201763   -1.2823775    39.330356 
84104000    318.45034    275.96653   0.82969963   0.10059447    42.483818 
84108000    335.81315    283.58469   0.89894216  -0.35951911    52.228464 
84112000    322.68478    274.34313   0.79782316   -1.4594778     48.34165 
84116000    323.20276    285.05988   0.52940286   -1.0668953    38.142878 
84120000    307.09889    276.52776    1.2640354   0.51498943    30.571129 
84124000    315.48014    272.66687   0.27697277  -0.53249278    42.813278 
84128000    314.46322     291.7973    1.5852001   -1.9733662    22.665919 
84132000    356.21525    277.15275  -0.14116891   -1.6188867    79.062504 
84136000    322.87596    287.25009    1.3748694   -1.3005744    35.625865 
84140000    312.40768    282.65286    2.4607801     -2.42556    29.754819 
84144000    312.98465    304.65086    1.8663041   -3.2578085    8.3337858 
84148000    315.87297     267.2498    1.5981599   -1.3754724    48.623167 
84152000    347.55077    266.85432  0.059245043  -0.66888929    80.696446 
84156000     327.4925    283.39105   0.58782882    -1.113561    44.101456 
84160000    315.86367    285.82745    2.1157292   -2.1511476    30.036223 
84164000    319.90713    276.73787     1.584771  -0.48630043    43.169256 
84168000    334.16241    303.55775   0.42349204   -2.3304951    30.604658 
84172000    336.03893    270.69775    1.0603478   0.08435784    65.341183 
84176000    325.25928    287.58594    2.5276891  -0.76057461    37.673345 
84180000    298.42865    279.74217     2.557178   -1.2662382    18.686478 
84184000    316.61304    275.31938    1.8835561    -1.318088     41.29366 
84188000    327.04098    290.43651    0.4676574   -1.2300531    36.604467 
84192000     325.6936    274.34772    2.2264176   0.49954373    51.345877 
84196000    324.76597    287.14786    1.2547994  -0.40171002    37.618109 
84200000    312.29131    286.60946    1.5056509  -0.67081227     25.68185 
84204000    318.32338    283.43989    2.8711317  -0.55020724    34.883493 
84208000     345.8141     289.9179  0.097311883   -1.0901457    55.896205 
84212000     314.8035    269.25018    1.1533928   -1.0713192    45.553321 
84216000    323.43048    285.05683   0.64001654   -1.5486066    38.373645 
84220000    306.55982     275.9372    1.8497055   -1.0298244    30.622618 
84224000     332.1974    283.78472    1.0552906   -1.1833487     48.41268 
84228000    331.90296    285.72811   0.53127173  -0.50767526    46.174846 
84232000    334.86797    268.96596   0.54246479  0.023968374    65.902013 
84236000    313.88166    277.90124    1.5197402   -0.8471747    35.980421 
84240000    318.61223    284.06942    1.8921441  -0.81268804    34.542812 
84244000    323.69756    268.66276    1.3845791    0.8874558    55.034805 
84248000    312.28291    288.64081    2.0186659   -1.2951587    23.642104 
84252000    348.62933    294.53232 -0.066520132   -1.0846168    54.097005 
84256000    307.13686    282.91301    1.5060032   -1.1287448    24.223843 
84260000    307.88829     271.7724    1.3610766  -0.76213492    36.115898 
84264000    333.07955    273.97986  -0.52608178   -1.2351571    59.099688 
84268000    312.61736    286.62924    0.2910653   -1.0512046    25.988114 
84272000    348.49166    279.01393  -0.83887378 0.0087463795    69.477731 
84276000    322.04069    270.05604   0.82336268   -0.9431387    51.984648 
84280000    322.26409    279.76386    1.7496793   -1.0967196    42.500231 
84284000     320.5448    284.21366     1.479439   -2.1005024    36.331141 
84288000    304.09934    279.23167    1.4384169   -1.1862293    24.867672 
84292000    326.51958    281.68434   0.87195157   -1.5543608    44.835236 
84296000    302.02802    261.07333    1.9322533  -0.27145734    40.954696 
84300000    301.45421    281.90101    1.7639206   -1.0175058    19.553197 
84304000    306.52386    284.02884    1.2564935   -1.0546288     22.49502 
84308000    334.27453    262.45821  -0.28592163   0.59126895     71.81632 
84312000    322.33749    301.06464    1.4326011   -1.7261693     21.27285 
84316000    331.30332     283.1591     1.400394   -1.0523055    48.144219 
84320000    316.55976    268.19684   0.79030348  -0.86546362    48.362918 
84324000    318.64498    275.94234   0.24043675  0.070356246    42.702645 
84328000    343.22381    279.36894    0.2304408   0.18408891    63.854866 
84332000    308.41515    292.09818    2.0334724  -0.89065517    16.316962 
84336000    327.38206    287.92264    1.7056361  -0.37695149    39.459411 
84340000     311.0476    300.57777   0.55044298  -0.82565042    10.469828 
84344000    320.46058    278.36515   0.28534557   -1.0747852    42.095428 
84348000    308.81045    303.85278   0.42206993   -1.0038425    4.9576743 
84352000    307.59897    271.70073   0.40864115   0.54999602    35.898242 
84356000    316.53785    276.70927   0.80756235    1.2777032    39.828582 
84360000    281.82727    272.54367    2.9789413    1.0617286    9.2835989 
84364000      305.764    278.21977    1.8780447   0.56895944    27.544227 
84368000    307.13674    284.06353    1.0384673   0.40462908    23.073212 
84372000    309.28397    283.37307    1.2867178    1.0907003    25.910901 
84376000    330.83658    296.02561    1.1163727    0.1613972    34.810967 
84380000    309.30396    258.63767     1.181467    1.3903891    50.666284 
84384000    304.79992    287.65207    1.4527395  -0.98496819    17.147855 
84388000    327.66021    287.34586   0.43441683 -0.096640729    40.314349 
84392000     324.8858     282.6567 -0.056199955   0.27010811    42.229101 
84396000    326.93336    277.43057   0.66673734    1.0418621    49.502783 
84400000    342.21862    256.70109    0.1512378    1.7632056     85.51753 
84404000    301.28058    286.98815     2.106622  -0.64179271    14.292436 
84408000    318.98006    295.14999    1.0083493  -0.69524086    23.830069 
84412000    311.45734    283.69202    1.7409722  -0.19191882    27.765317 
84416000    338.61602    275.49689    2.0276611   0.39257293    63.119126 
84420000    314.11154    269.63086    2.3852565   0.96885338    44.480681 
84424000    348.94682    287.94667   -0.1421807  -0.24406568     61.00015 
84428000    312.80159    288.01508    2.1518381   0.45943681    24.786505 
84432000    332.60598    297.94226    1.5107582  -0.25704514    34.663721 
84436000    309.97168     277.6737    2.2676551    1.2143731    32.297982 
84440000    310.03367    269.73562    2.7847077   0.93564722    40.298055 
84444000    293.79936    284.35928    2.1376658   0.79340844    9.4400881 
84448000     316.4426    269.17699    1.6713896    1.5693076    47.265603 
84452000    315.28217    263.05496    1.7197975    1.5779063    52.227209 
84456000    313.95703    256.93898     1.394323   0.92556601    57.018055 
84460000    331.88902    284.27226    1.3306671  -0.58094491    47.616757 
84464000    308.46505    270.14623     2.696106     1.273062    38.318819 
84468000     303.1778    272.23028    2.4833631  0.077774957     30.94752 
84472000    318.77353    302.88844   0.42072594  -0.33240719    15.885092 
84476000    309.14731    280.85352   0.71249295     1.920297    28.293791 
84480000    329.42561    280.85693    1.1758305    1.4896779    48.568684 
84484000    327.17199    281.44086   0.60302382   0.98967753    45.731135 
84488000    319.25626    287.50824    1.8391032  -0.26936675    31.748022 
84492000    339.53178    292.68531   0.81671477   0.61116773    46.846464 
84496000    342.93961    284.20059 -0.026882165   0.61983672    58.739021 
84500000     309.4965    277.60851   0.96942093    1.3057067    31.887989 
84504000    311.97307    276.50594    1.9707017   0.78549244    35.467137 
84508000    353.57266    303.29003  -0.36881576  -0.52453028    50.282628 
84512000     322.7733    292.69218   0.53671111    0.5534403    30.081111 
84516000    329.35067    269.32587   0.54402781   0.98443445    60.024808 
84520000    325.52984    272.88027   0.38604727    1.2159877    52.649571 
84524000    310.72907    278.57857    1.2188222 -0.045667432    32.150498 
84528000    309.69773    278.50917    1.2858302   0.73013385    31.188567 
84532000    328.16562    287.15976    1.2525238   0.40667321    41.005856 
84536000     314.6792    275.06182    1.0266365   0.86926818    39.617383 
84540000    338.93235    265.11111    0.2493622    1.1770326    73.821238 
84544000    318.37818    261.65537  0.038512506   0.80480219    56.722807 
84548000    335.65361    278.69479  -0.51492159    0.1568515    56.958826 
84552000    341.26119    284.66947  -0.19580325   0.28199666     56.59172 
84556000    300.07386    279.08056   0.30202258   0.20528525      20.9933 
84560000    336.20952    271.41971   -1.7011559   0.67259695    64.789816 
84564000    321.25331    281.38726  -0.52053713  -0.15447691    39.866042 
84568000     313.7704    296.00184    1.0530612   -1.5040337    17.768555 
84572000    308.34255    263.21291 -0.060243457   0.65879818    45.129642 
84576000    304.68494    274.37604   0.89912584   0.18553954    30.308898 
84580000    311.12615    295.79333   0.47618859   -1.1784896    15.332826 
84584000    328.65569    292.00866  0.061453103  -0.87026326    36.647029 
84588000    307.23736    275.34094   0.51576404  0.098283064    31.896422 
84592000    336.20873    296.90505   -0.1105292    -2.202593     39.30368 
84596000    317.41023    270.51336  -0.15003053  0.040456171    46.896867 
84600000    325.55067    281.49754   0.53362608   -1.6726047    44.053136 
84604000    320.87307    281.09283   0.19072774  -0.45341889    39.780244 
84608000    300.55234    302.28245    1.4283271   -1.4509198   -1.7301155 
84612000      332.803    286.35619    0.6561389  -0.18427579    46.446812 
84616000    329.21468    274.59329   0.65560259   0.34997288     54.62139 
84620000    333.31368    267.47914  -0.32783293    0.8524825    65.834532 
84624000    329.20446    284.89043  -0.22377733  0.022011744    44.314025 
84628000     333.0855    275.48595   0.30849608  -0.84459509    57.599555 
84632000    318.41131    296.64859 -0.053027806   -1.6725242    21.762714 
84636000    334.07029    289.90386   -1.9006411   -1.1994446    44.166429 
84640000    312.13835    289.13913 -0.056299383  -0.69403327     22.99922 
84644000    327.82056    272.04559   -1.5083368   0.92713562    55.774968 
84648000     361.1501    273.90558   -2.6782392   0.33420619     87.24452 
84652000    316.89823      278.108  -0.57266806   0.20028275    38.790224 
84656000    301.49413    297.46348    2.3719945    0.4913573    4.0306579 
84660000    322.62544    275.00673  -0.70138123   0.40986996    47.618703 
84664000    323.00778    270.66226    0.7401849    1.5283671    52.345513 
84668000    329.53046    268.25715   0.76309268   0.21304751    61.273312 
84672000    317.41173    260.06008    1.6237835    -0.239221    57.351643 
84676000    353.18226    284.81401   0.45004495   -1.0297188    68.368254 
84680000    321.93648    290.06046    2.3146333   -0.7469463    31.876013 
84684000    318.78387    281.52264   0.83497103   -0.2497523     37.26124 
84688000    330.67286    267.79653   0.77393917   0.12140125    62.876329 
84692000    307.30876    296.06681    1.5516829  -0.79948165    11.241949 
84696000    308.10637    271.79377    2.1820461   0.10577266    36.312598 
84700000     328.9139    284.42598    1.9621855  -0.39590422    44.487919 
84704000    310.38657    285.25023    2.2826082  -0.84501894    25.136342 
84708000     330.6187    277.76739    1.8573268    -1.842258    52.851306 
84712000    319.03482    250.29459    2.7896807   0.14943749    68.740226 
84716000    331.71771    286.89209    2.6541721   -1.7684192    44.825622 
84720000     298.1437    278.30313    2.8371613  -0.58869616    19.840577 
84724000    329.69539    286.21615    1.3745756   -1.1842503    43.479242 
84728000    318.46842    282.18839    2.0084793  -0.34388966    36.280023 
84732000     331.0686     292.4217   0.46044667  -0.63290384    38.646904 
84736000    291.54329    296.32271    2.2933167   -2.0263965   -4.7794184 
84740000    313.80431     266.8276    1.8138061   0.30211933    46.976703 
84744000    336.34392     283.2539   0.79518559   -0.7817712    53.090015 
84748000    333.52313    282.08374    2.3516231  -0.25832649     51.43939 
84752000    314.04735    277.77241    2.9723358 -0.048850571    36.274945 
84756000    313.46284    274.70719   0.90909533    1.0392654    38.755657 
84760000    320.36476    270.88131    1.2051815   0.26495251    49.483458 
84764000    340.45752    281.76012    1.2884778 -0.089760589    58.697401 
84768000     302.8215    286.77336    4.0034393   0.25971179    16.048137 
84772000    332.05994    284.23513   0.94416814   0.81041478    47.824811 
84776000    306.62568    298.62993    2.6794442  -0.58153962    7.9957491 
84780000    337.72474    294.24108    1.5305603 -0.027245837    43.483659 
84784000      320.035    264.13069    1.4299289   0.21284787     55.90431 
84788000    333.64666     288.2169    1.9774031    0.1036259    45.429754 
84792000    310.35465    267.25046    2.7539951    1.5790842    43.104192 
84796000    306.68988    251.80899    2.0969839    2.3558819    54.880892 
84800000    313.41429    269.04654    3.3929548    1.5953366    44.367746 
84801000    311.90571    268.92916    3.3124198    1.4419287    42.976543 
Loop time of 1059.43 on 4 procs for 800000 steps with 1498 atoms

Performance: 16.311 ns/day, 1.471 hours/ns, 755.123 timesteps/s
99.6% CPU use with 4 MPI tasks x no OpenMP threads

MPI task timing breakdown:
Section |  min time  |  avg time  |  max time  |%varavg| %total
---------------------------------------------------------------
Pair    | 530.22     | 733.23     | 939.67     | 736.4 | 69.21
Bond    | 3.2932     | 5.1628     | 6.8981     |  76.1 |  0.49
Neigh   | 6.1526     | 6.1548     | 6.1562     |   0.1 |  0.58
Comm    | 13.512     | 209.16     | 407.82     |1350.7 | 19.74
Output  | 0.0061384  | 0.019899   | 0.040313   |   8.9 |  0.00
Modify  | 56.02      | 80.656     | 106.94     | 215.0 |  7.61
Other   |            | 25.05      |            |       |  2.36

Nlocal:    374.5 ave 714 max 35 min
Histogram: 2 0 0 0 0 0 0 0 0 2
Nghost:    2376.75 ave 4259 max 496 min
Histogram: 2 0 0 0 0 0 0 0 0 2
Neighs:    13137 ave 26066 max 313 min
Histogram: 2 0 0 0 0 0 0 0 0 2

Total # of neighbors = 52548
Ave neighs/atom = 35.0788
Ave special neighs/atom = 0.518024
Neighbor list builds = 1499
Dangerous builds = 0
unfix 1


# PRODUCTION

fix             1 all nve
fix             hot all langevin ${TThi} ${TThi}  0.005 59804  tally yes
fix             hot all langevin 320 ${TThi}  0.005 59804  tally yes
fix             hot all langevin 320 320  0.005 59804  tally yes
fix             cold all langevin ${TTlo} ${TTlo} 0.005 287859 tally yes
fix             cold all langevin 280 ${TTlo} 0.005 287859 tally yes
fix             cold all langevin 280 280 0.005 287859 tally yes
fix_modify      hot temp Thot
fix_modify      cold temp Tcold

variable        tdiff equal c_Thot-c_Tcold
thermo          4000

dump gigo all atom 4000 dump.cords_xyz.dat
dump_modify gigo scale no
dump vfgigo all custom 4000 dump.velo.dat id vx vy vz fx fy fz

# thermal conductivity calculation
# # reset langevin thermostats to zero energy accumulation
#
compute         ke all ke/atom
variable        temp atom c_ke/1.5/0.00008617333262

fix             ave all ave/time 100 40 4000 v_tdiff ave running
thermo_style    custom step temp c_Thot c_Tcold f_hot f_cold v_tdiff f_ave

#compute         layers all chunk/atom bin/1d z lower 0.05 units reduced
compute         layers all chunk/atom bin/1d z lower ${dz} units box
compute         layers all chunk/atom bin/1d z lower 6.0700273388011 units box
fix             2 all ave/chunk  100 40 4000 layers v_temp file profile.langevin

run             16000000
WARNING: Using a manybody potential with bonds/angles/dihedrals and special_bond exclusions (../pair.cpp:218)
Neighbor list info ...
  update every 1 steps, delay 0 steps, check yes
  max neighbors/atom: 2000, page size: 100000
  master list distance cutoff = 16
  ghost atom cutoff = 16
  binsize = 8, bins = 3 3 23
  4 neighbor lists, perpetual/occasional/extra = 4 0 0
  (1) pair lj/cut, perpetual, skip from (4)
      attributes: half, newton on
      pair build: skip
      stencil: none
      bin: none
  (2) pair morse, perpetual, skip from (4)
      attributes: half, newton on
      pair build: skip
      stencil: none
      bin: none
  (3) pair eam, perpetual, skip from (4)
      attributes: half, newton on
      pair build: skip
      stencil: none
      bin: none
  (4) neighbor class addition, perpetual
      attributes: half, newton on
      pair build: half/bin/newton
      stencil: half/bin/3d/newton
      bin: standard
Per MPI rank memory allocation (min/avg/max) = 12.03 | 12.29 | 12.44 Mbytes
Step Temp c_Thot c_Tcold f_hot f_cold v_tdiff f_ave 
84801000    261.05468    311.90571    268.92916           -0           -0    42.976543            0 
84804000    267.09636    337.79106    265.76645   -1.6078136   0.21347757    72.024608            0 
84808000    259.23555    334.01761    262.78505   -1.0271711   0.47103882     71.23256    36.532813 
84812000    273.81325    324.36959    284.66407    -1.454352   -2.1785759     39.70552    37.709701 
84816000    264.89616    308.74371    291.91552   -1.1484975   -1.0658272    16.828186    38.475143 
84820000    271.45749    295.37551    296.73971  0.032530085   -1.0029982   -1.3641941    38.369237 
84824000    269.62636    337.25047    268.01633    -1.448434  -0.21061922    69.234143    40.029173 
84828000     277.0256     345.6932    300.54703    -2.304892   -2.5735315    45.146167    40.152735 
84832000    265.45081    313.67941     280.3503   -1.2393696   -1.5308479     33.32911    39.670491 
84836000    270.89711    334.65532    259.14849   -1.8015166   0.40439064    75.506831    40.002116 
84840000    268.33623    349.84966    267.16267   -3.8867471   -0.1796325    82.686993    39.716936 
84844000    263.88843    305.97134    279.30802   -1.3797424   -1.6631965    26.663322    39.461005 
84848000    274.64831    335.12741    276.92375   -1.3871236   -1.7359624    58.203657    39.656069 
84852000    277.47843    331.12452    280.18024   -1.4241793   -1.9980338    50.944283    39.823281 
84856000    271.73309    324.46131    272.56264  -0.82929714   -1.0352088    51.898668    39.908167 
84860000    269.64271    312.19363    287.24217    -1.359235   -2.7308418    24.951461    40.032409 
84864000    274.21947    313.63478    295.25104   -1.4255823   -2.0617658    18.383744    39.954046 
84868000    271.01054    337.41659     264.8314   -1.7065708  -0.49888936    72.585198    39.932303 
84872000    273.61196    319.24248    274.84183    -2.161617   -0.5805255     44.40065    40.000601 
84876000    273.66037    332.31161    279.19438    -2.311892  -0.98321888    53.117227    39.924575 
84880000    270.86548    307.32411    291.16825   -1.7031076   -2.1889998    16.155863    39.849126 
84884000    273.15459    333.74608     284.7853   -2.2458446   -1.3911735     48.96078      39.9611 
84888000    270.19719    327.92184    272.32278   -1.1928556     -1.16784    55.599067    40.114467 
84892000    272.14779    325.44322    291.80057  -0.55580867  -0.47592023    33.642658    40.206691 
84896000    271.95518    326.74148     263.7651   -1.9564312  -0.25559505    62.976381    40.128892 
84900000     267.4083     307.4609    293.84646  -0.24534999   -1.5460578    13.614446    40.228702 
84904000    269.72116    318.79577    272.55409    -2.203399  -0.11050582    46.241684     40.11429 
84908000    288.73671    365.64388    285.27097   -3.4181567   -1.0626849    80.372909    40.307729 
84912000    267.61038    295.01663    278.30159  -0.62025167   0.29023888    16.715039    40.218624 
84916000    272.15864    328.64899    264.28578   -2.4349531 -0.090278617    64.363215    40.301353 
84920000    272.30477     312.2331    277.69952   -1.3934832  -0.71381325    34.533571    40.392031 
84924000    267.57835    312.86186    278.68624   -3.0498927  -0.66504994    34.175619    40.428935 
84928000    275.71331    315.61629    299.67015   -3.1514879   -1.6774765    15.946134    40.292438 
84932000    275.14493    335.50345    264.96419   -3.2966561    0.1624401     70.53926    40.256907 
84936000    272.84809       307.01    309.95884   -1.5756227   -1.5864963   -2.9488471     40.14761 
84940000    268.84349     303.0145    294.42832   -1.1933184   -1.3584742    8.5861787    40.138156 
84944000    267.42205    300.75303    273.53129    -2.250174  -0.82848073    27.221733    40.147802 
84948000    277.50206    342.21503    270.36821   -3.6701714  -0.20828204    71.846825    40.231037 
84952000    270.88823    331.51421    258.72772   -1.4675087   0.73213182    72.786483    40.212794 
84956000    270.29274    320.22435    272.48756   -1.7954559   0.63385898    47.736789     40.23929 
84960000    267.59596    318.33581     274.5733  -0.84771272  -0.23825029    43.762511    40.330046 
84964000    274.29367    317.97537    289.60156   -1.5129942   0.14393896     28.37381    40.515073 
84968000    266.82712    326.25085    293.46183   -1.7478121   0.49810237    32.789022    40.562933 
84972000    266.16222    322.01677    269.72396    -1.885368    1.6940587    52.292814    40.648934 
84976000     277.8561    335.00653     284.0313   -2.0756013   0.60559272     50.97523    40.623519 
84980000    265.57799    327.44683    282.49625   -1.9666139   0.23345949    44.950578    40.735574 
84984000    265.97024    309.39419    288.75919  -0.64969995  -0.31868512    20.634997    40.713974 
84988000    266.23509    317.46283    292.30524  -0.75505904  -0.16448624     25.15759    40.659297 
84992000    263.40342    320.85834     281.8874   -1.7983108    1.1500581    38.970942    40.702486 
84996000    264.51358    323.15151    281.18254   -1.5661838   0.74588572    41.968973    40.712646 
85000000    269.87775    313.18603    289.19927  -0.54352373  -0.51627422    23.986762    40.561838 
85004000    264.04197    300.75232    284.56599    1.0519209   0.80693006     16.18633      40.4542 
85008000    266.02672    324.25439    276.49324   -2.1242998   0.83432993    47.761148    40.415745 
85012000    266.34277    322.63565    272.36713   -2.2488507    1.3940001    50.268527    40.410213 
85016000     262.4114    311.20808    282.07665   -1.9395651   0.29273593    29.131431    40.358077 
85020000     269.2743    326.67311    288.84033   -1.0630081  0.042548408    37.832777    40.322696 
85024000    269.96211    341.76477    282.57595    -1.834186   0.51935582     59.18882    40.241842 
85028000    278.08615     347.7675     286.6131   -1.6985442   0.81056226    61.154403     40.26336 
85032000    258.14961    342.21389    257.19233   -1.6626272   0.86183198    85.021562    40.298949 
85036000    261.82133    339.57737    272.66345   -1.5441152    1.6066232    66.913915    40.291899 
85040000    262.19367    315.93055    278.37315    1.3866746    2.3338954    37.557401    40.303764 
85044000    249.62999     302.5798    268.49941   0.31545131    2.2216675    34.080391    40.201884 
85048000    259.51381    311.69857    279.27875  -0.78884136     2.141941    32.419817    40.192657 
85052000    256.75716    313.12187    284.99963   -1.0829235    2.2045936     28.12224    40.144738 
85056000    264.55122    337.73734     275.2068   -2.9374295    1.8173607    62.530545    40.149571 
85060000    258.45359     296.6055    276.38352   -1.6898701     2.143984     20.22198    40.211508 
85064000    270.79772    326.29572    289.67654     -2.42218    1.0657454    36.619187    40.193254 
85068000    272.24103    302.54811    305.26055   -1.5769214  0.072269281   -2.7124443    40.163287 
85072000    272.91882     321.9128    284.14278    -2.239725    1.9815011    37.770027    40.053939 
85076000    268.82281     331.2462    292.14446   -2.5882288   0.88793931    39.101743    40.112268 
85080000    266.11631    311.58815    292.32142   -2.9189971  -0.23061141    19.266726     40.09818 
85084000    266.94728    312.46594    278.19471   -2.0097024   0.21863657    34.271224     40.04137 
85088000    274.25998    314.37674    296.58866   -1.6527447  -0.35694359    17.788085    40.053605 
85092000    275.53656    337.02479    282.55857   -2.5183408   0.78879039     54.46622     40.06659 
85096000    266.76739    315.87281    279.90823   -1.2950304   0.89245826    35.964577     40.02383 
85100000    266.49856    313.97605    273.50133   -1.7382941   0.80686385    40.474722     40.04602 
85104000    267.15741    305.29672    274.79228   -1.4246027    1.2514929    30.504439    40.122821 
85108000    251.20288    295.56501     244.5176  -0.66045407    3.3011011    51.047415    40.142072 
85112000    261.90009    314.95252    273.56202   -0.9636128    1.6445371      41.3905    40.138109 
85116000    267.56358    321.48699    279.40125   -1.1218339    0.7141651    42.085742    40.179495 
85120000    261.23378    326.45427    259.69215  -0.42585921    2.3383863     66.76212    40.215791 
85124000    255.32481    297.52923    276.01934  -0.97428431    1.4850673    21.509893    40.273483 
85128000    265.29466    343.71313    274.68461   -2.0938101    1.6080378    69.028514    40.338577 
85132000    261.37497    303.40226    269.00042 -0.036281387    1.3943715    34.401846    40.314958 
85136000    257.88406     316.8942    261.75412   -2.1857048    1.5483503    55.140083    40.308299 
85140000    274.29009    323.33755    294.29717   -2.0111156   0.17562876    29.040383    40.369753 
85144000    264.45475    310.99767    273.23099    -1.580905    1.7749243    37.766678     40.37125 
85148000    268.47358    325.84336    265.30533   -1.1913284    1.3077872    60.538031    40.400421 
85152000    269.74166    318.19541    281.26233   -1.6541487    1.2466044    36.933079    40.394929 
85156000    270.58371    318.07218     282.2996   -1.8593349    1.0215402     35.77258     40.39707 
85160000    267.54705    311.40045    273.55658   -2.3824793    1.2097111    37.843866    40.346753 
85164000    271.95426    338.22554    283.01426   -3.6453049   0.91798587    55.211281    40.352002 
85168000    264.74902    293.43346    293.79274   -2.1100275   0.87740733  -0.35927549    40.338579 
85172000    268.45897    313.15849    280.03861   -2.3798308    1.4261474    33.119885      40.3606 
85176000    267.50123    321.85095    294.54236   -3.6509728   0.12155433    27.308593    40.355627 
85180000     265.0711    300.93702    269.90052   -2.1086692    1.3009984    31.036496     40.34779 
85184000    269.06827    307.34519    293.33158   -2.2298896  -0.39360816    14.013617    40.371237 
85188000    268.57295    322.11385    266.87102   -2.9085497     1.289391    55.242837    40.368724 
85192000    261.84051     302.3824    266.53281   -2.7934578    1.8908379    35.849591    40.362447 
85196000    277.19898    333.37738    276.65445     -3.77134    1.3512975    56.722933    40.334193 
85200000    262.09854    289.23019    269.08434   -2.9842917    2.0825654    20.145844    40.313406 
85204000    272.87887    326.41523    266.29175   -4.8458872    1.8025828    60.123484    40.384843 
85208000    265.58462    303.50475    297.86091   -4.7355613  -0.04034849    5.6438376    40.333381 
85212000    268.32392    320.24482    275.48365   -4.4567741     0.436284    44.761168    40.275842 
85216000    280.84603    338.93629    277.23489    -4.558131    1.3233249    61.701401    40.269873 
85220000    272.18734    318.09986    287.70006    -4.218678   0.33082561    30.399804     40.24079 
85224000    279.04389    329.53313    298.92287   -5.8688963   -0.5519722    30.610261    40.164525 
85228000    272.66453    301.12798    296.67281   -4.8578437 -0.026732882    4.4551691    40.133644 
85232000    278.71989    319.42513    296.28645   -4.4851414   0.37895147    23.138675    40.112041 
85236000    273.93182    339.40497    273.95277   -4.8324676     1.703838    65.452205     40.11487 
85240000    271.81248    305.90882    275.13126      -3.6819    2.0803229     30.77756    40.103072 
85244000    274.01402     324.9945    277.29292   -5.0517527    1.5699314     47.70158    40.136077 
85248000    259.77459     286.3991    267.88941    -2.870405      2.98967    18.509689    40.123431 
85252000    274.36743    314.54518    276.22349    -4.903951     2.611421    38.321692    40.115312 
85256000     267.1945     326.8132    273.63452   -4.4399563    1.4744656    53.178678    40.147979 
85260000    282.75088    320.40953    306.78909   -3.6929409 -0.069364818    13.620443    40.099702 
85264000    273.32964     326.1326    284.17355   -4.4348436    1.2532812    41.959046    40.123349 
85268000     277.7771    325.16073    291.01551   -3.9309115    0.6923301    34.145223     40.10932 
85272000    264.27723     304.5192    280.04511   -4.0597412   0.68205195    24.474089    40.119723 
85276000    276.43534    311.39987    288.83186   -4.6947642    1.1298238    22.568009    40.139195 
85280000    261.92888    318.08333    262.01795   -4.7233824    3.5356653     56.06538    40.173788 
85284000    275.93664    303.96259     316.6117   -3.8072286    1.7733164   -12.649107    40.186764 
85288000    273.77333    323.92975    278.59323   -4.6730041   0.82305832    45.336513    40.139043 
85292000    268.73595     317.6958    267.84464   -3.1598747    1.8304305    49.851159     40.10808 
85296000    267.07834    312.64746    260.07798   -3.7684174    2.6983089    52.569474    40.111976 
85300000    270.87256    323.45324    288.17298   -4.1849774   0.95206637    35.280259    40.052514 
85304000    270.73682    310.84648    272.44707   -3.7681612    2.0838784    38.399409    40.061573 
85308000    264.64594    314.77352    286.21131   -4.2996694    1.4773262    28.562211    40.068121 
85312000    271.14328    324.86705    282.22161   -4.8146688    2.0553798    42.645437    40.075166 
85316000    264.85628     301.9901    278.72235   -3.4482677    2.4177103     23.26775     40.08771 
85320000    266.97319    325.25548    259.24648    -4.452574    3.3037006    66.009002    40.103793 
85324000    270.31634    323.53615    293.27398   -4.0251472    1.3228112    30.262172    40.113745 
85328000    276.52332    330.67867    271.84002   -4.9817196     1.688964    58.838645    40.087197 
85332000    266.55181    321.08026    272.57095   -5.6807446    1.6856847    48.509313    40.083758 
85336000    265.28934    314.20081    258.60396   -5.1495318       2.7797    55.596843    40.091974 
85340000    273.31012    315.09094    299.52784   -3.7140967    1.6007604    15.563099    40.102281 
85344000    267.05068    314.17215    280.71831   -3.9533896    2.1511083    33.453842    40.143288 
85348000    275.28801    326.19561    289.47496   -4.9005539    1.3197362    36.720645    40.160066 
85352000    269.64588    318.80584    270.85557   -4.5171812    2.1846389    47.950269    40.177424 
85356000    270.55862    320.99296    283.18914   -5.0943357    2.1705953     37.80382    40.149641 
85360000    266.96594    326.89987    280.35259   -4.1166753    2.9027074    46.547283    40.177247 
85364000    268.99562    319.57641    281.94017   -3.3847309    1.6912583    37.636239     40.17505 
85368000    269.98999    335.79486    272.09925   -4.0496612    1.2233223     63.69561    40.229149 
85372000    262.69916    319.87805    261.22928   -5.0900092      1.79994    58.648774     40.21511 
85376000    268.29401    316.25599    279.34323   -5.1414138    2.5317186    36.912754    40.217747 
85380000    278.76375    339.05009    296.67108    -4.752614    1.5515936    42.379017    40.224143 
85384000    268.65832    312.82168    281.25715   -5.2509966    2.2652279     31.56453    40.241555 
85388000    263.77001    300.66278    276.65712   -4.4858061    1.9186097    24.005657    40.275287 
85392000    273.47067    310.67229    304.16398   -4.1787867   0.53424541     6.508314    40.262629 
85396000    273.86554    324.36327    300.91096   -5.4897708   0.58824495    23.452312    40.248629 
85400000    266.75973    326.29948    279.29599   -4.6148189    1.4023277    47.003485    40.293308 
85404000    279.76822     318.5144    307.76417   -5.1388942  0.047296044    10.750228    40.263815 
85408000    275.81514    334.93858    281.86875   -5.6621324    1.3918723    53.069832    40.232711 
85412000    279.50832    340.79022    295.09933   -4.2431345   0.98288812    45.690896    40.198586 
85416000    264.48266    322.26707    263.08256   -4.0913254    3.5263647    59.184511     40.19671 
85420000    276.82276     341.2838    285.80115   -6.1064153    2.7717579    55.482647    40.191261 
85424000    265.03031    308.19837    295.28728   -4.1022583    1.6858406    12.911083    40.182249 
85428000    264.52657    321.47028    271.52398   -4.3163085    2.5690114    49.946307    40.207627 
85432000    274.35968    334.89473     297.6884   -5.1571767   0.27666389    37.206325    40.202022 
85436000    268.76333    356.06587    276.69565   -5.6666432   0.04698805    79.370223    40.223939 
85440000    262.61975    295.47277    286.44204   -3.5762642     1.917686    9.0307318    40.183782 
85444000    273.60753    342.02187    282.19913   -4.5875689    2.8192497    59.822744    40.226565 
85448000    276.61873    338.65766    277.17848   -5.4941967      3.64611    61.479187    40.236706 
85452000    271.02637    353.20099    281.94824   -5.7670695    2.6924498    71.252744    40.247705 
85456000    269.78364    302.20138    297.82763   -2.4832543    2.2526206    4.3737508    40.257562 
85460000    269.81622    312.60463    271.76026   -4.1838789    3.0448407    40.844366    40.256143 
85464000    270.33674     329.6259    270.74496   -5.2207332    2.5408066    58.880939    40.254686 
85468000    265.97628    302.74867    286.17337   -3.0808451    2.2271778    16.575302    40.279962 
85472000    264.10601    310.61218    273.58248   -3.2010192    2.3668305    37.029708    40.323855 
85476000    268.13721    336.39209     279.2824   -4.1564041    2.0040027    57.109697    40.328964 
85480000    268.06343     312.9796    279.84081   -2.2051472    1.7087542    33.138793    40.312779 
85484000    266.19606     327.5362    287.63894   -3.3745169     1.324771    39.897255    40.287778 
85488000    266.53753    321.91582    252.05995   -2.2988279    2.4895286    69.855878    40.329395 
85492000    269.62283    316.55589    295.52927   -1.7926257    1.5848513    21.026623    40.320682 
85496000    265.18996    314.56336    277.51831    -2.770153    3.2496568    37.045049    40.298581 
85500000    262.39594    325.25387    268.92885   -3.9835223    2.7674089    56.325015    40.310428 
85504000    258.80575    293.40001    270.28178   -1.5255628     3.426045    23.118235    40.300603 
85508000    261.03384    316.64903    273.35727   -3.4297141    2.3035943    43.291753    40.302531 
85512000    267.20819    339.26784    256.85834   -3.8817248    2.9827449    82.409499    40.312636 
85516000    269.52696    324.18838    284.92049   -3.4307892    2.6394896    39.267892    40.301578 
85520000    261.01044    295.30231    275.16075   -3.3811497     2.522379    20.141559    40.291317 
85524000    277.98539    350.19851    282.85639   -6.6350681    2.1933696    67.342121     40.28205 
85528000    271.49895    325.59756    283.17889   -5.2641757     2.202814    42.418671    40.289844 
85532000    268.09411    322.99346    286.18495   -5.2249063    2.3670307    36.808507    40.278445 
85536000    269.05829    303.96222    275.70568   -3.8596644     1.757142    28.256541    40.271736 
85540000    259.55371    307.83998    271.02305   -4.2065625    3.1128923    36.816932    40.253819 
85544000    270.59814    332.46261    271.05718   -4.4505571    3.0561038    61.405422    40.257063 
85548000    266.52751     325.6706    273.67529    -5.268541    2.9908781     51.99531    40.269581 
85552000    264.25106    313.45427    278.51128   -3.6937314    2.6939283    34.942989    40.272282 
85556000    265.29935    345.45903    261.34779   -5.7327656    4.3122444    84.111234    40.251012 
85560000    264.60252    322.56814    265.26967   -5.1033825    2.7415122    57.298478    40.253523 
85564000    266.82407     329.1615    263.40515   -5.1645487     3.140631    65.756352    40.293006 
85568000    265.27052    310.09805    279.18542   -3.5147903    3.0383509     30.91263    40.302346 
85572000    270.16205    318.45331     270.1916   -3.5820532    3.9108937     48.26171    40.322035 
85576000    270.17957     321.9779     296.6275   -3.4544793    2.0781788    25.350404    40.317488 
85580000    266.07884    322.84853    272.86236   -4.7956745    3.3290685    49.986172    40.318517 
85584000    265.34653     320.3838    274.34912   -5.1007657    2.4952265    46.034681    40.320571 
85588000    272.75727    349.83219    276.66756   -5.5692122    2.9090659     73.16463     40.32467 
85592000    267.13714    309.56676    280.49613   -5.3834395    3.0580134    29.070633    40.329632 
85596000    260.45324    309.94831    272.53115   -5.0278738    4.1582071    37.417166    40.323109 
85600000    260.41377    303.90931    260.60005   -3.6850439    5.2506961    43.309262    40.308855 
85604000    280.35904    338.82184    304.82946   -5.4167817    2.3617601    33.992382    40.291602 
85608000    270.62211    310.42956    292.76984   -5.0122741     1.694056    17.659718    40.290924 
85612000    272.75731    310.57465    293.58339   -5.2515829    1.0532593    16.991256    40.291602 
85616000    257.87458    306.87466      263.176   -4.7944247     3.826855    43.698662    40.286785 
85620000    278.17156    318.67153    290.29766   -4.9710964    1.9774623    28.373871    40.275712 
85624000    269.67856    301.77195    290.79519    -5.525981    3.3343839    10.976756      40.2691 
85628000    265.83275    308.08563    271.32732   -5.0637744    2.8542167    36.758314    40.260782 
85632000    271.79205    322.46341     298.6784   -5.8363659    2.0783686    23.785006    40.265069 
85636000    273.89143    315.10537    285.80129   -5.6699628    2.8166962    29.304076    40.269788 
85640000     272.9873    328.66467    283.65683   -6.5752168    3.1657695    45.007834    40.274503 
85644000     268.2846    333.21665    269.06509   -5.8892016    3.7757536    64.151556    40.286634 
85648000    266.69594    316.23164    272.50457   -4.9742173    3.8935415    43.727066     40.26557 
85652000    266.06261    288.86707    281.61388   -3.9841711    3.1779416    7.2531884     40.26617 
85656000    261.53455    318.58998    271.61285   -6.1380474    3.8824022    46.977131    40.273968 
85660000    274.24547     325.3187    276.32478   -6.3977082    3.4473752    48.993919    40.281533 
85664000    273.04703    344.55009     285.8331   -7.8165016    3.0663047    58.716994    40.295991 
85668000    273.95961    321.99582    277.86792   -6.5988929    3.4072353    44.127894    40.281013 
85672000    274.03768    326.45914    290.39062   -6.2426618     2.953891     36.06852    40.268884 
85676000    260.35239    320.95738    252.31621   -5.4955944    4.6194764    68.641177    40.286013 
85680000    270.00089     321.9415    271.33607   -5.6396208    3.6771098    50.605426    40.284339 
85684000    274.98993    343.55832    280.82148   -6.5377337    2.7578505     62.73684    40.274668 
85688000     272.7048    319.04132    293.49929   -4.7062465    2.3905956    25.542028    40.284362 
85692000    272.31461    345.15652    267.94251   -5.1641393    2.7170587    77.214009    40.276001 
85696000    278.57014    345.69946    288.31942   -5.1207433    1.3403867    57.380034    40.283971 
85700000    266.08017    306.71025     278.9044   -3.9736592    2.5023216     27.80585    40.269337 
85704000    267.50032    317.74665    265.77482   -4.2981507    2.2941333    51.971833    40.269216 
85708000    271.76516    343.73986    263.59926   -7.3132131    3.0877959    80.140595    40.275226 
85712000    277.69938    319.66127    294.22184   -5.2685216    2.4313332    25.439429    40.294762 
85716000    274.47934    341.93165    267.88688   -5.9154816    2.7113846    74.044774     40.29682 
85720000    274.41011    320.34281     299.5505   -5.9678773    1.7479475    20.792312    40.292051 
85724000    269.05025    313.93326    276.36851   -5.2184726    3.0238533    37.564751    40.288541 
85728000    274.26804    334.97829    257.99587   -6.0769942    3.8152618    76.982419    40.305037 
85732000    276.03297    340.95843    284.05767   -5.8942259    2.2854152    56.900761    40.306171 
85736000    274.35522    328.67483    276.23578    -5.716505    2.7348239    52.439059    40.326652 
85740000    276.39641    320.80805    300.02031    -4.902704     2.301588    20.787746    40.334903 
85744000    264.60072    306.82975    271.15129   -3.1466906    2.9462487    35.678459    40.346808 
85748000    278.09566    335.75801    280.95812   -4.9542504    2.5093106    54.799888    40.352408 
85752000    269.78375    318.70723    264.77586   -5.5045127    2.2670411    53.931371     40.34978 
85756000    264.19787    305.90146     261.5873   -4.0819061    2.9471696    44.314168    40.344675 
85760000    268.93446     318.5647    252.64119   -3.8506445    3.7953322    65.923507    40.359227 
85764000     269.5261    315.55774    279.86828   -4.3796959    2.2896466    35.689454    40.383528 
85768000    272.43572    312.07853    273.85362   -4.7878804     3.317471     38.22491    40.388229 
85772000    276.96415    330.64867    291.85435   -4.8357949     0.840213    38.794319    40.391403 
85776000    268.09629    323.13724      283.893   -5.2912814    1.7222052    39.244236    40.388005 
85780000    277.87339    326.57693     286.3449   -5.0107332    1.5313203    40.232027    40.384234 
85784000    271.36786    329.11098    269.21198   -5.1155677    3.5968507    59.899002    40.388558 
85788000    274.22115    330.31039    285.58755   -4.8223944    1.9089756    44.722844    40.383992 
85792000     265.7125    296.33294    271.97363   -3.9103848    2.4523283    24.359311    40.368909 
85796000    272.21382    326.78433    276.76357   -5.2838987    3.8887495    50.020758    40.369902 
85800000    267.11123    306.78422    286.26994   -4.1788585    2.5607076     20.51428     40.36119 
85804000    273.30293    331.67854    290.65713   -5.5839732    1.0427051    41.021416    40.346733 
85808000    269.99489    321.18065    265.54684   -3.8686057    2.7110997    55.633819    40.355799 
85812000    279.06646     346.9719    264.32205   -5.7689392    2.8293612    82.649854      40.3554 
85816000     274.6313    336.87422    273.10835   -6.0850395    2.8132676    63.765865    40.343297 
85820000    267.49668    327.96823    266.62603   -6.3967425    3.2195124      61.3422    40.347682 
85824000    275.35274    325.25188    286.47337   -4.7310669    2.6135424    38.778512     40.36078 
85828000    260.53897    293.64919    281.56573   -3.3301661    2.0311764     12.08346    40.313029 
85832000    273.45443    326.20045    265.09552   -4.8887353      3.83683    61.104935     40.30767 
85836000    271.87811    310.60094    268.37759   -4.3392862     2.248876    42.223354    40.284907 
85840000    268.00004    306.27641    261.73311   -5.8042433     2.533346    44.543306    40.273927 
85844000    267.01129    313.88249    274.90219   -5.5246128    2.5645994    38.980295    40.276127 
85848000    274.31397    324.87077    273.56467   -5.1256576     2.281017    51.306099    40.278398 
85852000     258.9892    309.66769    260.87183   -3.3570838    3.5843084    48.795859    40.297774 
85856000    263.48692    313.32929    270.56714   -4.7882029    2.4729928    42.762158    40.293293 
85860000     273.8226    340.16066    289.16222   -5.1614412    1.6878797    50.998441    40.309526 
85864000    276.13445    330.35589    287.80007   -5.4094213    1.5499087    42.555819    40.321124 
85868000    270.68812    298.82573    291.32485     -4.63065    2.8163289    7.5008807    40.333164 
85872000    268.51247    313.00389     283.4522   -4.5923726    1.7222586    29.551692     40.33015 
85876000    269.59365    316.68766    268.02241   -3.9684309    3.4729762    48.665251    40.326619 
85880000    266.73598     303.1116    294.97336   -3.5923926   0.93121819    8.1382338    40.302589 
85884000    279.80476     347.3902    283.50734   -6.1170785    2.0888138    63.882852    40.289836 
85888000    275.14008    293.80996    298.41999   -3.5900468   0.52997555   -4.6100284    40.290174 
85892000    277.47414    337.61372    283.59112   -5.6829747    2.1821911      54.0226    40.289837 
85896000    267.75221    321.00319    274.02723   -4.4413847    2.8188108    46.975956    40.285317 
85900000     272.0772    313.31671    280.00279   -6.8274619    2.6930966    33.313918     40.28672 
85904000    272.14032    325.80175    270.81148   -6.9098092    2.7054554    54.990274     40.28433 
85908000    275.78645    318.14429     285.9761   -5.8075599    1.3399372    32.168191    40.290562 
85912000    271.68809    332.45633     270.8573   -5.6164723    2.4639627    61.599027    40.280206 
85916000    270.77488    304.14474    255.18567   -5.4104032    3.4465824    48.959068    40.289104 
85920000    265.02583    313.37072    257.76243    -5.664366    3.1981475     55.60829    40.300759 
85924000    277.83481    331.47969    278.91355   -5.4467219    3.3977801    52.566134    40.300216 
85928000    272.78077    324.26074     265.4919   -5.7198216    2.9409182    58.768836    40.306053 
85932000    267.03495    302.62639    272.09905   -5.4317319    2.6132796    30.527338    40.307719 
85936000    276.74361    342.70954    272.08736   -6.3939949    3.2004786    70.622175    40.317628 
85940000    271.79929    318.95971    274.10741   -4.9120495    2.6687456    44.852306    40.312425 
85944000     276.3625    333.93688    268.50843   -5.6252493    2.6927165    65.428453    40.304571 
85948000    276.19904    335.23031    286.08422   -5.9241795    2.0571216    49.146097    40.305917 
85952000    267.43002    302.38553     289.2756   -4.3631017    2.4874121    13.109937    40.292143 
85956000    285.53757    343.25344    315.31477   -7.1109112    1.2478265    27.938667    40.287806 
85960000    279.56998    339.05189    285.72348   -6.2698727    2.6591586    53.328411    40.292797 
85964000    273.02241     309.3428     274.5544   -4.9719031    3.0147941    34.788398    40.290585 
85968000    274.49911    341.14076    275.50214   -6.8675993    2.8637504    65.638629    40.297637 
85972000    272.92745    325.19207    285.94243   -5.1315503    2.7435436    39.249642    40.299408 
85976000     277.3606    315.73537     304.9742   -5.4067279    2.0382786    10.761173     40.30362 
85980000    283.50756    344.01123    284.24079   -6.6500401    2.3477137    59.770442    40.297448 
85984000    274.37187    311.48701    277.68835   -5.4850027    3.5574824    33.798666    40.298864 
85988000    269.01279    302.63219    279.12084   -5.5853229     2.061097    23.511347    40.304871 
85992000     283.2068    344.54417    276.21951   -6.0974231    1.9451122    68.324652    40.290247 
85996000    261.28487    296.66391    285.18386     -4.79901    1.1286824    11.480046    40.292794 
86000000    269.77642    306.03775    277.47141     -4.78503     2.630316    28.566341    40.297048 
86004000    264.71654    313.36297    257.74771   -5.3053798    3.9726858    55.615261    40.303892 
86008000     265.8337    296.74738    272.64277   -5.2863081    3.0313121    24.104615    40.296452 
86012000    276.19075    320.15174     301.2485   -6.3336173   0.63613162    18.903246    40.286456 
86016000    279.47774    328.31918    281.64089   -5.7303744    2.1457693    46.678293    40.291683 
86020000    270.89784    316.00095    295.97408   -4.7328103    2.1682968    20.026878    40.305404 
86024000    271.08787    331.10971    273.68061   -5.7991931    2.8341518    57.429099    40.307403 
86028000    276.40818    321.39819    288.36195   -5.9603031    2.4095716    33.036234    40.288864 
86032000    277.84633    314.36449    291.38532   -5.7256273    2.4825331    22.979172    40.286429 
86036000    283.84529    344.56947    281.34116   -7.3118237    2.6128646    63.228307     40.28515 
86040000    271.16474     288.0849    281.88362   -4.8254607    2.0675672    6.2012811    40.284079 
86044000    265.50783    306.84411     275.5013   -6.5940309    3.3050692    31.342816    40.276615 
86048000    285.22236    310.21428    310.41142   -6.6109597   -0.4713163  -0.19713672    40.268943 
86052000    282.26147     331.1757    290.53232   -6.7352045    1.4933407    40.643387    40.262999 
86056000    277.81224    322.06113    285.31039   -6.5897653   0.51837866    36.750742    40.273694 
86060000    277.07939    333.99684    287.44723   -6.3671045    1.8617166    46.549614    40.263331 
86064000    272.42308    307.69331    261.82212   -5.6559337    4.2392994     45.87119    40.255377 
86068000     270.2779    330.99058     277.9492   -7.4819428    2.2350953     53.04138    40.252139 
86072000    276.14605    314.61865    284.81949   -5.7408589    1.4631766    29.799159    40.242602 
86076000    275.33659    310.82139    286.02665   -5.6767935      1.47924    24.794739    40.231866 
86080000    283.28351    335.36906    288.83094   -7.6080187    2.8426509    46.538121    40.224816 
86084000    274.20925    306.81244    288.35329   -5.1636097   0.88533275     18.45915    40.215701 
86088000    282.07726    320.51346    291.26137   -6.3777377    1.5849759    29.252089    40.212981 
86092000    273.93385    315.51807    277.53461   -7.0630091    2.8446928    37.983466    40.240462 
86096000    276.12371    336.05251    269.34443   -7.3950377    3.5719438    66.708086    40.240347 
86100000    281.71486      335.145    293.74666     -6.80468    2.1827766     41.39834    40.239655 
86104000    284.60038    314.88923    291.67902   -6.2848595    1.8095763    23.210212    40.242089 
86108000    280.25064    335.90129    298.78491   -6.8263451   0.57109319    37.116372    40.250639 
86112000    275.83364    326.14836    250.52816   -8.0742344    3.3030596    75.620202    40.266862 
86116000    282.94429    321.90891    313.59027   -7.7451515  0.033885959    8.3186399    40.255582 
86120000     272.1804    326.89419    270.74043   -8.1904161    3.6937875    56.153755    40.255179 
86124000    278.24069     326.9406    272.41773   -7.7549628     2.801991    54.522863    40.243383 
86128000     280.4498    327.25194     295.9448   -7.8460484    1.6025603    31.307147    40.250489 
86132000    275.84517    309.57924    281.67691   -6.7375101    2.9414498    27.902332    40.246389 
86136000    281.16863     326.5555    274.38133   -6.6336833    3.3244003    52.174174    40.252342 
86140000    275.70815    324.38686    278.11297   -6.8292377    1.2043957    46.273896    40.249477 
86144000    273.71403    310.68503     279.2156   -6.6273845    2.2592927    31.469435    40.254524 
86148000    272.96463     309.3865    277.68768   -7.0537976    1.7701673    31.698822    40.247835 
86152000    275.66032    322.18016    279.66611   -6.6685164    2.0493085    42.514056    40.243824 
86156000    282.83063    331.72318    286.64576   -7.2505163    2.2250965    45.077426    40.240778 
86160000    264.29856    306.92657    253.32474   -5.4292962    2.9262385     53.60182       40.226 
86164000    278.40478    319.76711    286.90465   -6.9801779    1.4255863     32.86245    40.248836 
86168000    280.41056    323.70545    288.58793    -8.319762    1.7170907    35.117529    40.254226 
86172000    277.03437     329.1209    274.49633   -8.1876121    3.0001416    54.624569    40.250332 
86176000    283.14553    316.46531    303.08786   -6.4365611    1.6825316    13.377451    40.253543 
86180000    278.60127    333.77804    291.49067   -7.6192692    1.7467661    42.287373    40.247873 
86184000    274.59239    310.88466    283.58252   -5.6355981    3.3348693    27.302137    40.249629 
86188000    267.28986    280.39224    274.18858   -6.1896507    3.0125054     6.203659    40.249748 
86192000    278.08622    313.37896    284.88548   -7.4988746     2.445105    28.493481    40.252883 
86196000    271.35834    331.56806    265.51794   -8.3488033    3.4327037    66.050122    40.246926 
86200000    268.82767    312.90433    262.28035     -7.61969    3.1218094    50.623982    40.240649 
86204000    277.55197    316.06651     283.0175   -8.0930147    1.2279549    33.049002    40.238763 
86208000    282.38614    319.39528     290.8413    -7.857955    1.6026836    28.553986     40.23327 
86212000    277.21824    328.46649    266.66843   -8.5252523    2.9640673    61.798062    40.238444 
86216000    285.13412    332.29901    290.84561    -8.406843   0.81350775    41.453403    40.240071 
86220000    275.47537    324.95727    270.50535   -7.9488875     2.527223    54.451926    40.223865 
86224000    277.05475    316.25626    267.16303   -7.4358044    2.6227094    49.093232    40.212998 
86228000    276.62036    324.95173    283.77087   -8.6560617    2.9764449    41.180854    40.213235 
86232000    286.26097     335.8005    277.95412   -8.8321427    1.8814786    57.846382    40.197517 
86236000    277.56431    306.50013    294.88077   -8.4870793    1.9545574    11.619354    40.193168 
86240000    288.84986    342.58965    291.63855   -8.7570331    0.9336191    50.951098    40.194225 
86244000    277.82963    325.36732    296.64529   -7.4437469    1.0896527    28.722031    40.200508 
86248000    269.37418    330.59687    276.21804   -6.7838771    2.3679154    54.378831    40.204754 
86252000    275.56959    321.66427    285.93697   -6.7217701    2.5969506    35.727302    40.201292 
86256000    261.97166    299.61161    255.47433   -6.1962948    4.1390742    44.137278    40.221211 
86260000    275.69142    323.77283    274.92815   -8.2232726    2.6993295     48.84468    40.215233 
86264000    277.88967    327.28254    280.79632   -8.2611543      2.93451    46.486221    40.224832 
86268000    273.11712    328.94819    280.68646   -7.3258035    2.6597255    48.261723    40.229559 
86272000    288.94775    341.83539    303.12292   -7.5090348    3.4286485    38.712471    40.231277 
86276000    267.62744    299.27294    286.12272   -5.8713073    1.2193616    13.150221    40.226442 
86280000    273.36064    303.95277    276.05297   -5.1863517    2.5763204    27.899804    40.243407 
86284000    259.83574    305.71062    262.12699   -6.1873767    4.3272893    43.583627    40.242368 
86288000    275.40569    318.27972     295.3421   -6.2928542    1.7365562    22.937616    40.237351 
86292000    284.01847    358.81634    270.55108    -8.890529    5.0334657    88.265261    40.244407 
86296000    273.63042    314.89926    280.33363   -6.9319545    2.8606385    34.565636     40.24868 
86300000    266.54919    304.07491     287.6287   -4.6109013    3.2280075    16.446204     40.25336 
86304000    273.03621    328.45348    278.54057   -6.8427652    4.3779304    49.912909    40.231544 
86308000    264.16573     296.2798     259.2718   -5.6161816    4.7933856    37.007998    40.255814 
86312000    268.01889    319.29707    277.29571   -5.8768119    3.0444639    42.001364    40.243459 
86316000    282.55291    341.45647    267.29021   -7.8139092    4.0769708    74.166258    40.243173 
86320000    284.18781    337.30164    311.79647   -7.5078554    1.8967153    25.505167    40.251819 
86324000    267.96208    310.71323    263.58658   -5.3457754    4.2621262    47.126648    40.263329 
86328000     270.9111    338.00235    273.38914   -6.6393618    4.4256206      64.6132     40.26904 
86332000    270.49755    318.25359    281.72036   -6.7777616    3.0429195    36.533224    40.288404 
86336000    268.55102    314.56291    281.48217   -6.5717152    3.1277388    33.080746     40.27679 
86340000    265.99666     305.5282    259.37788   -6.0384537    3.8675709    46.150322    40.288891 
86344000    281.84611    333.89351    298.06925   -7.8546336    3.2081593    35.824253    40.285633 
86348000    275.88728    329.98086    258.26908   -7.7129762    2.9008829    71.711781    40.286863 
86352000    277.44705    323.02752    286.76967   -6.6840568     2.476071    36.257845    40.293335 
86356000    267.45373     304.3598    295.93118   -6.1607605     2.327946    8.4286211    40.289121 
86360000    273.83375    324.94943    280.68826   -5.9826892    4.2238443    44.261174    40.303303 
86364000    266.13032     308.1546     264.1039   -6.2688465    5.5368962    44.050704    40.307445 
86368000    277.97069    327.06248    286.56669   -7.7135822    3.5443671    40.495796    40.303359 
86372000    278.23289    330.05001    315.91464   -7.9030253    1.0908374     14.13537    40.316326 
86376000     276.6539    341.97768    268.40812   -7.3749213    3.2575888    73.569554    40.308904 
86380000     269.3488    313.59302    272.06212   -6.8909675    4.4048257    41.530896    40.305522 
86384000    277.74898    337.89432    292.04875   -8.3016435    3.3285878    45.845569    40.307963 
86388000    263.54654    312.34478    262.33065   -6.4425626    4.5609331    50.014131    40.307853 
86392000    280.62298    349.79634    283.38253   -8.5543494    4.1270976     66.41381    40.306519 
86396000    279.55243    332.98401    297.26783   -8.2086946    3.5898402    35.716181    40.309074 
86400000    264.81437    302.30974    266.26377    -6.879041    4.0148683    36.045975    40.297163 
86404000    273.58984    325.67996    288.79213    -7.745293    3.8940477    36.887826    40.286454 
86408000    274.20234    308.63649    285.05426   -7.0790144     3.128983    23.582225    40.279593 
86412000    270.76496    324.96319    261.57847   -6.8992112    4.0085096    63.384715    40.289036 
86416000    274.73866    336.42495    271.93932   -7.3235096    4.3485387     64.48563    40.283263 
86420000    271.31643    335.64856    278.30853   -7.2473553    4.6297122    57.340032    40.278651 
86424000    271.24179    309.33716    278.28829   -6.2552954    4.1565424     31.04887    40.291665 
86428000    278.13311    330.35927    276.76969   -7.8815753    3.6016469    53.589586     40.29265 
86432000    280.06115    337.56622    287.65919   -7.4557144    2.9982871    49.907033    40.284241 
86436000     269.1162    319.04269    276.70294   -7.0170947      3.66803    42.339746    40.278912 
86440000    272.29466    314.25307    279.96529   -6.5381211    2.9365263     34.28778    40.282569 
86444000    275.99522    303.12767    298.48086   -5.3371067    2.4032339    4.6468073    40.281511 
86448000     271.9977    326.74913    283.59907   -8.0208849    3.1054872    43.150063    40.282724 
86452000     268.0317    315.44392    272.48308   -6.7814205    4.5972645    42.960839    40.283735 
86456000    267.19948    318.49911    268.93329   -7.0788827    5.1432255    49.565818    40.293998 
86460000    268.70097    324.69518    275.01945   -7.5354725    4.8326844    49.675729    40.294334 
86464000    280.11994    348.64014    284.86227   -8.2910657    4.4246969    63.777875    40.300127 
86468000    269.44593    311.18002    282.98566   -7.8196003    4.7102364    28.194357    40.313477 
86472000    272.24641    326.82062    287.83545   -7.5346067    4.6344008    38.985177    40.315347 
86476000    266.34926    312.93349    289.00232   -8.0117817    3.7770654    23.931167    40.316381 
86480000    273.68088    314.39595    290.79071   -7.3467524    3.1787078    23.605239    40.324573 
86484000    273.97575    300.80122    293.57348   -7.6760751    3.0928019    7.2277392      40.3189 
86488000    271.45802    333.14774     273.2297   -10.018892    4.4272554    59.918036    40.318104 
86492000    273.38804    334.31163    283.05777   -7.2184113    3.7115377    51.253856    40.308544 
86496000    270.12904    323.56203    272.73844   -6.3181454    5.2467278    50.823588    40.302691 
86500000    281.99127    331.80946    297.51277   -7.1831257    4.6083484    34.296698    40.315709 
86504000     272.6488     332.3117    279.69163   -7.6669594    4.2124643    52.620069    40.320283 
86508000    281.40029    328.20636    293.72105   -8.3712692    3.5519416    34.485314     40.31056 
86512000    272.88382    310.07896    280.71957   -7.6517125    4.6720466     29.35939    40.305937 
86516000    272.70541    325.38818    275.84053   -7.9674493    4.5489689    49.547656    40.310012 
86520000    277.88371    332.10229    261.86442   -9.0395428    4.4217705    70.237873    40.300977 
86524000    284.70485    320.96497    295.89731   -7.6521967    3.5880144    25.067662    40.295359 
86528000    279.51889    319.87868    281.41824   -6.5549759    3.5596839    38.460445    40.301026 
86532000    267.72977    313.89273    276.59962   -7.5234099    3.9147058    37.293105     40.30232 
86536000    271.96426    329.24008    253.99292   -8.6119739    3.6251165    75.247158    40.306091 
86540000    283.81374    339.01603    292.78766   -8.4962408    2.5663842    46.228371    40.308282 
86544000    265.42821    294.50022    252.07252   -6.1263537    5.6691959    42.427699    40.312903 
86548000    278.65678    324.88964    283.77614   -7.8865967    3.8096086    41.113504    40.309967 
86552000    263.68095    300.25104    288.69704   -7.8447017    3.4979394    11.553999    40.315242 
86556000    273.66487    312.09923    267.55945   -7.4479657    4.7993835    44.539781    40.307779 
86560000    274.68228    313.15939    271.08105   -8.1636457    4.7975918    42.078335    40.302076 
86564000    276.20189    304.29461    281.51101   -8.0791195    4.8053717    22.783602    40.305275 
86568000     287.0246    334.14778    292.00506   -9.0062899    4.0440959    42.142724    40.304423 
86572000    275.91062     321.6725    289.29861   -8.6557273    4.1269213    32.373888    40.313313 
86576000    266.68962     311.1358    250.03724   -6.9814413    5.9185291    61.098564    40.312427 
86580000    272.33938     317.2927       278.52   -8.7449226    4.8848129    38.772701    40.310193 
86584000    263.76649    291.09357    268.77881    -5.834547    4.8573888    22.314763    40.321355 
86588000    277.60365    316.49795    301.33427   -8.2572285    3.5926788    15.163678    40.314521 
86592000    280.82667    330.52919    297.46244   -9.0279815    3.3792005     33.06675    40.312187 
86596000    275.18203    315.37444    281.19532   -8.6431741    4.4559864    34.179123    40.307036 
86600000    267.52341    307.99623    264.79417   -7.6165111    5.4081237    43.202063     40.30645 
86604000    266.10937    314.18342    286.63829   -8.2420783    4.1541181    27.545126    40.295961 
86608000    266.97245    304.38626    253.01571   -7.6077075    6.1594527    51.370548         40.3 
86612000    274.54694    324.96357    270.42879   -8.0917038    5.2388689    54.534784    40.307886 
86616000    274.23266    323.00807      275.804   -7.5477675    4.9533137     47.20407    40.300056 
86620000     273.8529    322.98258    282.17466    -8.837673    4.5688001    40.807926    40.300315 
86624000    278.34707    331.01877    286.25557   -8.7094316    4.2138337    44.763209    40.308526 
86628000    274.81967    325.45046    279.87428   -8.7045631    4.7229942    45.576179    40.306308 
86632000    271.69023    312.19331    284.55003   -8.3385438    4.6741598    27.643275    40.303546 
86636000    267.31595    303.26376    268.98334   -8.9678905    6.2027068    34.280411    40.296163 
86640000    270.90422    334.08559    262.79099   -10.594015    5.4393692      71.2946    40.298603 
86644000    276.61577    325.12731    274.19936   -9.2428385    5.1710648    50.927954    40.301292 
86648000    275.83303    316.13208    283.87535    -7.316382    4.7820595    32.256726     40.29727 
86652000    277.79669    342.87419    286.47017   -9.2182779    4.8390156    56.404023    40.297035 
86656000    270.66299     310.0102    277.86906   -8.1089705    4.3859822    32.141136    40.296878 
86660000    275.27635     308.6039    305.12072   -7.2435099    2.7830372    3.4831792    40.294768 
86664000    273.85357    338.40537    261.84486   -9.0743958    5.5622124    76.560513    40.297595 
86668000    272.69471    315.96009    284.14716   -8.3966586    3.7605214    31.812924    40.296903 
86672000    265.33773    293.44589    270.95538   -6.8511673     5.698943     22.49051    40.289745 
86676000    271.78795    324.30583    271.51156   -9.1980984    5.6032244    52.794272    40.292883 
86680000    283.93366    319.11408    294.68832   -9.2821356    4.0688564     24.42576    40.306416 
86684000    277.06578    329.96436    278.80503   -9.7560372    5.4598207    51.159323    40.320841 
86688000    282.50755    315.24821    283.77689   -9.2401382    4.7144816    31.471317    40.322677 
86692000    278.60375    332.16968    272.86298   -10.165832    4.2694325    59.306691    40.322246 
86696000    280.76032    314.57247    278.24636    -8.764436    6.0534561    36.326109    40.327808 
86700000    281.51006     337.0052    266.26644   -9.0849228    5.9075995     70.73876    40.321873 
86704000    280.50957    333.30874    264.36473   -9.9135899    5.0656129    68.944008    40.329763 
86708000    266.41583    298.27206    287.20624   -8.8240851    5.5402832    11.065823    40.330693 
86712000    282.90959    339.85216    296.20765   -10.771752    4.4472643    43.644513    40.334941 
86716000    281.40542    325.72043    294.73942   -10.120818    5.0427113    30.981012    40.341114 
86720000    267.53999    304.80922    265.04567   -8.4289093    5.8191457    39.763554    40.345892 
86724000      268.015    310.53107    278.56324   -9.2650494    5.6048227    31.967838     40.35264 
86728000    272.71459    326.16474    280.40322   -10.261027    5.4417589    45.761523    40.345687 
86732000    268.87271    312.03412    271.37569   -9.7401537    5.9985992    40.658425    40.343333 
86736000    262.82037    313.49524    260.07547   -9.9241577     6.773253    53.419778    40.337567 
86740000     266.7203    301.77364    249.24463   -8.7766446    6.2476779    52.529009    40.335291 
86744000    279.12935    320.31726    285.00164   -9.3211871     4.913675    35.315622    40.336826 
86748000     277.8346    326.73338    281.52949   -9.8730807    4.5428917    45.203885     40.34311 
86752000    265.42159    312.29091    264.01372   -8.5649066    6.1745328    48.277191    40.336003 
86756000    270.61629    311.64126    272.67513   -7.6005721    6.6966169    38.966131     40.33522 
86760000    278.59573    342.13614    276.72068   -9.0472573     6.756392    65.415462    40.338325 
86764000    271.82076    344.90394    266.87783   -8.8243167    5.3768529    78.026109    40.341293 
86768000    271.88446     317.4754    284.07417    -7.508191    5.0816205    33.401231    40.344062 
86772000    275.02643    333.20574    279.00047   -7.9526051    5.6092968    54.205276    40.346489 
86776000    277.25625    312.72984    293.01362   -7.9901965    5.2137173    19.716221    40.350628 
86780000    265.45059    304.41493    270.14854   -6.7442124    4.9374826    34.266393    40.345074 
86784000    278.95405    348.31295    285.51168   -7.7069148    5.0101271    62.801265    40.344633 
86788000    271.97403    322.56767    282.80833   -8.6532291    4.1886155    39.759335    40.350741 
86792000    274.09542    303.93433    294.00195   -6.7259959    3.6440732    9.9323824     40.34572 
86796000    261.86803    321.89541    251.71482   -7.9417141    6.3693071    70.180591    40.351732 
86800000    272.88998    321.03133    270.65801   -9.4185062    5.5487982    50.373327    40.351406 
86804000    281.50943    344.39287    284.81294   -9.8598288    5.7342185    59.579936    40.351157 
86808000    278.03366    332.81652    281.21709   -9.5052019    5.6692998    51.599429    40.350707 
86812000    274.89496    323.51572    288.29911   -9.1005691     5.821229    35.216606    40.352086 
86816000    276.90795    346.82396    261.78013   -10.081576    6.8047927    85.043827    40.347778 
86820000    272.73066    321.79606    265.71952   -7.9441828    7.2219129     56.07654    40.345448 
86824000    272.17431    293.45151    289.17447   -7.8842944    4.8403333    4.2770391    40.334804 
86828000     269.1176    334.57033    273.85686   -9.6083607     6.355535    60.713461    40.335536 
86832000    280.05396    342.54522    284.20629   -10.660688    5.5814242    58.338924    40.331397 
86836000    276.86466    334.85339     283.6547   -9.9567678    5.5520375    51.198695    40.327805 
86840000    275.26554    321.37878    282.55181   -8.8296334    6.1172402    38.826969    40.320222 
86844000     271.5196     341.0079    260.55823   -9.2360234    6.1588036    80.449679    40.316516 
86848000    270.24932    292.18274     283.7209   -6.3666928    5.6436806    8.4618439    40.304898 
86852000    275.36232    322.13425    295.45128   -8.7490206    5.8668578    26.682965    40.303972 
86856000    279.79695    325.93506    285.40625   -9.1316279    5.6787686    40.528809    40.306435 
86860000    261.93472    305.20993    270.90253   -7.6107055    5.7714602    34.307398    40.303022 
86864000    264.99272    312.31876     278.5633   -7.8267204    5.3790158     33.75546    40.306227 
86868000    279.15688    329.03332    291.91097   -8.7192886     4.844413    37.122355    40.309302 
86872000    270.61933    313.53771    275.21159   -8.1549062     5.474173    38.326113    40.309114 
86876000    270.84634    328.16217    258.59803   -8.6007953    6.7012882    69.564135     40.30559 
86880000    271.94939    362.92094    264.76831   -10.751433    6.8645716    98.152629     40.30208 
86884000    271.63776    326.64779    286.87931   -7.6125169    6.1893978    39.768473    40.299798 
86888000    291.39792    341.60011    317.31401    -9.766937    3.4751612    24.286102    40.296716 
86892000    270.50549    331.22574    271.44214   -9.5668288     5.662359    59.783603    40.308221 
86896000    266.57876    313.24413    282.47914   -8.5443447    5.7550999    30.764986    40.304172 
86900000    276.71334    333.96203    292.84824   -8.9425145    6.1191202    41.113784    40.302768 
86904000    272.35989    311.24933    272.90698    -7.702701    6.5444143    38.342348    40.295409 
86908000     275.3732    303.01102    323.92179   -7.2628201    3.2476994   -20.910767    40.289413 
86912000    281.72115    329.70696    289.85245   -7.7277594    4.4465689    39.854508    40.293075 
86916000    275.56589    339.15372     284.2869   -8.0024836    4.6777737    54.866822    40.292386 
86920000    268.82441    321.39352    264.99943   -8.2444864    6.1708834    56.394086      40.2976 
86924000    266.67282    305.57469    281.34584   -7.9819851    5.9817719    24.228859    40.287021 
86928000    265.31809    315.11624    274.66451   -7.0990139    6.2387366    40.451728    40.286389 
86932000    270.68375    310.59025     286.8883   -7.3015668    5.6344031    23.701942    40.274914 
86936000    270.65524    317.54706    261.12305     -7.58843    6.5612672    56.424002    40.273212 
86940000    272.64535    301.64946    275.86484   -6.6396965    6.2339464    25.784622    40.268577 
86944000    265.31091    298.08805    279.40709   -6.6047371    6.1611108    18.680958    40.266636 
86948000    274.56252    332.08981    293.10368   -8.7834764    3.9250551    38.986123    40.270712 
86952000    279.14346    335.67156    306.03938   -8.2249684    4.6873937    29.632176    40.273958 
86956000    265.63988    311.23291    263.76345   -6.9406798    5.1733286    47.469461    40.257455 
86960000    273.21042    318.32368    294.08814   -8.1408174    4.8843875    24.235544    40.268459 
86964000    266.70575    321.57157    270.33488   -8.5418512    5.0594926    51.236691    40.266344 
86968000    272.92986    331.56424    277.67215   -9.2415799    5.6010284    53.892092    40.267005 
86972000    277.73131    318.53794    297.02318   -8.2692289    4.9788823    21.514754    40.269932 
86976000    273.63027    319.11443    288.92906   -8.3759344    5.7177986    30.185369     40.27089 
86980000    276.97529    320.49462    281.25563   -7.1245439    4.4810615    39.238992     40.26999 
86984000    271.14144    318.35722     275.9232    -7.833131    4.8882653    42.434023    40.272336 
86988000    271.98953    320.08417    293.50784   -6.9796452    4.6272431    26.576333    40.270995 
86992000    272.93152    316.36097    280.60998   -7.0303937    4.6648198    35.750989    40.265727 
86996000    275.15638    304.87016     306.3228   -8.6567944    3.2307717   -1.4526415     40.26836 
87000000    279.08306    343.98703    280.82837   -10.087654    5.2331831    63.158662    40.272246 
87004000    278.61415    331.80183     301.2415   -8.3967822    3.8971748    30.560329    40.272398 
87008000    264.66156    305.96127    274.53158   -7.0326928    4.8065012    31.429697    40.277473 
87012000    270.90298     329.7664    270.91676   -9.2115238    5.4753904    58.849646    40.273514 
87016000    274.48441    323.26793    273.59419   -9.9178332    4.9614413    49.673742     40.28232 
87020000    274.10145    332.29928    271.09741   -10.768862     4.936919    61.201862    40.279914 
[...]
100112000    267.01735    310.64484    252.32138   -34.076166    31.617508    58.323459    40.105083 
100116000     266.0216    315.86292     277.6084   -32.917813    30.350376    38.254513    40.105317 
100120000    268.92302    331.41053    257.88574   -34.819575    31.474418    73.524797    40.105365 
100124000    269.50167    303.02509    273.83002   -32.823694    30.259849    29.195063    40.106059 
100128000    282.11311    330.35794    285.61803   -35.718531    30.101598    44.739911    40.107647 
100132000    268.54453     311.2092    279.84935   -34.845156    30.002519    31.359857    40.108503 
100136000    288.14141    341.44326    307.49216    -36.01461    28.921483    33.951096    40.106578 
100140000    271.03487    319.85029    272.14854   -34.043775     30.18651    47.701748    40.105227 
100144000    282.55947    352.26996    291.59542   -36.186258    30.216499    60.674544    40.105661 
100148000    276.04639    334.20485    281.65571   -35.919126      30.4587    52.549138     40.10612 
100152000    270.92813    310.50458    272.00172   -35.228335    30.997846    38.502854    40.105684 
100156000    281.97053    349.67606    277.28015   -36.613518    31.047814    72.395913    40.104473 
100160000    281.35311      313.309    297.45479   -35.778323    30.531222     15.85421     40.10518 
100164000    275.53265    328.25305    279.01466   -34.901883    30.813481    49.238392    40.105507 
100168000    282.53879    324.41434    282.92926   -35.518477    31.064169    41.485082    40.103828 
100172000    275.16595    311.83271    287.87005   -35.517219    30.067389    23.962661    40.103456 
100176000    276.35644    307.42584    268.48269   -33.420328    31.278206    38.943147    40.103262 
100180000    272.25405    311.62872    280.63446   -33.004911    30.767121    30.994255    40.104037 
100184000    268.65556    299.92501      281.783   -34.066781    31.346234    18.142005    40.104331 
100188000    277.13477    334.73175    281.34538   -36.278309    31.380451    53.386373    40.104927 
100192000    273.79877    316.25192    264.14088   -34.468386    31.422106    52.111039    40.104824 
100196000    276.91251    304.03606    293.88405   -34.578725    30.496513    10.152002    40.103543 
100200000    270.17393    310.24502    276.00198   -33.509719    32.290314    34.243036    40.103308 
100204000    271.39152    306.00941    294.19756   -34.088326    30.654533    11.811847    40.102725 
100208000    270.67301    314.61265    278.12704    -35.18788    32.133069     36.48561    40.103142 
100212000     270.2909    315.66088    289.71862   -33.703011      31.2876    25.942258    40.104368 
100216000    273.21361    325.07346     267.2289   -34.466853    32.232538    57.844562    40.104748 
100220000    277.51854    341.59622    279.99637   -34.555466    32.075527    61.599858    40.105583 
100224000    276.44956    318.41333    301.67254   -33.316175    29.631709     16.74079    40.106241 
100228000    276.56511    331.39473    289.75686   -34.683745    31.290607    41.637872    40.105975 
100232000    276.84121    316.95286    284.69446   -33.751315    31.284031    32.258396     40.10668 
100236000       275.83    310.46159    284.62666   -33.116005     32.29995    25.834923    40.105968 
100240000     278.9655    345.71729    297.94358   -35.400656    31.374474    47.773708    40.106736 
100244000    260.74794    290.93371    263.66746   -32.111369    32.231931    27.266251    40.106568 
100248000    275.93473    325.85763    280.79306   -33.750635    30.989032     45.06457     40.10757 
100252000    270.51285     307.6363     282.1363   -33.276161    31.565352    25.500005    40.108266 
100256000    266.81782    325.29618     272.2061   -33.342288    31.517096    53.090084    40.107797 
100260000    271.11128    320.13863    292.16802   -32.953297    31.068784    27.970613    40.106442 
100264000    272.61195      306.833    290.73983   -32.807363    30.304604    16.093167    40.107395 
100268000    271.12397    338.06536    281.14486   -33.376628    31.328112    56.920501    40.106979 
100272000     265.0609    319.11081    290.62577   -33.250973    30.110293     28.48504    40.106202 
100276000    269.58964    312.98791    279.13177   -33.179193    31.087767    33.856142    40.105114 
100280000    275.87837    329.02759    292.45382   -34.061685    30.494264    36.573767    40.104885 
100284000    270.45898    335.15779     275.7377   -34.203246    30.932075    59.420089     40.10434 
100288000    267.57114    308.63083    287.97336   -32.752122    30.396341    20.657475    40.103565 
100292000    271.24566     329.0606    274.99809   -33.173828    31.212836    54.062504    40.104906 
100296000    273.87884    327.33704    278.11416   -33.279255      31.5899    49.222878    40.104943 
100300000    273.59438    320.09336     284.7537   -34.045172    32.288375    35.339663    40.105081 
100304000    268.58532    316.02533    281.38483   -33.981634    31.182808    34.640501    40.105511 
100308000    264.55479    316.64587    261.45121   -34.374096    31.612304    55.194654     40.10403 
100312000    271.69355     333.2235    270.56048   -36.117206    29.948734    62.663021    40.104109 
100316000    290.39433    354.84887    303.55633   -35.609666     29.31124     51.29254    40.105169 
100320000    274.34148    328.12388    294.86451   -35.195861    30.037841    33.259364    40.106866 
100324000    272.52332    328.68187    270.84016   -34.761436    31.041788    57.841705    40.106406 
100328000    282.74442    337.14287    274.47246   -35.404519    31.462657    62.670412    40.106365 
100332000    269.88141    321.53068    289.38214   -33.875887    30.960188    32.148537    40.106848 
100336000    269.71423    321.76485     266.4901   -34.230189    31.983979    55.274745    40.106527 
100340000    275.66242    312.93248    287.42593   -33.992082    31.260743    25.506546    40.107158 
100344000    267.67712    309.86717    275.35335   -34.990084    31.838438    34.513816    40.106808 
100348000    272.36455    332.27285    281.03486   -33.838063    31.105217    51.237986    40.106863 
100352000     269.1843    330.31829    269.15393   -32.698664    31.693412     61.16436    40.106939 
100356000    285.20146    344.84909    286.83519   -34.239303    30.727134    58.013894    40.106029 
100360000    264.27047     307.6547    266.29848   -32.428595    32.642755    41.356218    40.106145 
100364000    268.88446    306.50068    290.39247   -33.483135    31.454357    16.108209     40.10512 
100368000    278.44184    351.85916    295.38878   -35.873719    31.176799     56.47038    40.104908 
100372000    271.50225    335.64462    268.35472   -34.922214    32.565647    67.289899    40.104458 
100376000    273.02829    329.00768    266.23362   -33.520263    33.356336    62.774055    40.104974 
100380000    273.33592    317.51977    278.78095   -34.167375    31.233109    38.738818    40.104241 
100384000    261.22839    289.27968    284.13174   -31.671072     31.70147    5.1479401    40.104422 
100388000    270.68273    319.98896    287.21335   -34.149842    30.996665    32.775611    40.104607 
100392000     273.3581    290.75179    285.24604   -32.974293    30.556874    5.5057455    40.103827 
100396000    271.78302    315.77466    285.18816   -33.620583    30.303559    30.586495    40.104363 
100400000    262.93391    322.48493    257.33667    -33.74634    32.199762    65.148252    40.104305 
100404000    270.18518    306.09346    285.80042   -33.600597    31.665729    20.293046    40.103788 
100408000    269.17472    310.85084    279.92144   -33.434593    30.647461    30.929398    40.103942 
100412000    266.47044    305.00307    284.23243   -32.373862    31.951732    20.770641     40.10346 
100416000    264.94093     314.4452    261.43843   -33.167859    32.037212    53.006771    40.103186 
100420000    266.31685    333.35857     257.5397   -33.650114    31.700945    75.818875    40.102763 
100424000    265.53389    307.48761     274.5288   -32.691417    31.588918     32.95881     40.10324 
100428000    266.20936      316.029    279.62202   -32.976992    31.880798    36.406979    40.104217 
100432000    264.37351    323.51367    264.46462   -33.249873    32.781964    59.049055    40.103316 
100436000    268.11577    313.86649    291.41346   -32.251135    30.881936    22.453039    40.104162 
100440000    261.15342    315.61154    256.65225   -34.362648    32.309097    58.959294    40.103031 
100444000    272.37095    326.63751    275.09615   -34.626288    32.227841    51.541356    40.102977 
100448000     271.0722    327.84115    290.84524   -34.088823    31.013295    36.995906    40.103477 
100452000    269.16753    313.43841    278.48498   -32.416522    31.977901    34.953435    40.102295 
100456000    278.76251    351.35583    282.58432   -35.125327    31.951363    68.771509     40.10225 
100460000    276.73692    343.76925    291.81418   -34.612983    31.339379    51.955068    40.101628 
100464000    275.14729    350.14518    279.00416   -34.653835    31.632411    71.141026    40.102622 
100468000    267.41557    312.19156    284.32536   -33.532056    31.904589    27.866204      40.1028 
100472000      267.074    321.06332    272.82466   -33.727892    31.558336    48.238667      40.1032 
100476000     263.2768    311.04263    264.33481   -33.444216    32.035329    46.707822    40.102201 
100480000    274.16425    320.12201    283.95293   -33.834295    30.249294    36.169079     40.10124 
100484000    267.12183    295.84443    278.57934   -33.850225    30.470495     17.26509    40.101797 
100488000    274.88886    338.82302    273.19924   -35.223024     31.72482    65.623775    40.100414 
100492000    278.02022    342.06591    281.63439   -35.521099    31.442157    60.431521    40.100614 
100496000    260.17695    298.85255    266.08825    -32.28816    32.670261    32.764298    40.100949 
100500000    279.29884    337.16267    277.55054   -34.262005    32.133563    59.612131    40.101073 
100504000    271.21314    323.06121    285.34932    -33.95453    32.010783    37.711892    40.101583 
100508000    269.19904    322.22128    290.14616   -33.625892    31.169135    32.075128    40.101375 
100512000    263.54815    287.65849    290.91552   -32.346568    30.764618   -3.2570365    40.099021 
100516000    267.99541    312.09321    283.65733   -31.992199    31.187013    28.435888    40.100128 
100520000    269.32502    319.71873    281.36822   -33.087973    30.852381    38.350504    40.100647 
100524000    263.12988    308.16044    261.41159   -33.344302    33.283797    46.748843    40.100083 
100528000    282.53254    336.89356    288.69636   -33.899859    30.607944    48.197207    40.099662 
100532000    282.87992    325.36675    289.37881   -34.729489    30.099894    35.987943    40.099978 
100536000    273.24443    315.50725    277.61888   -34.813234    31.833658    37.888369    40.099409 
100540000    268.94761    290.97092    273.21246    -32.42089    31.933159    17.758459    40.098793 
100544000    270.24007    328.45327     268.2087   -34.057883    31.664434    60.244571    40.098767 
100548000    269.46029    341.14386    266.19395   -35.333862    32.303235    74.949908    40.098056 
100552000      272.832    329.03735    296.94932   -34.432212    30.414006    32.088029    40.096251 
100556000    272.12903     326.3769    283.57522    -34.62315    31.002773    42.801677    40.095949 
100560000    268.98381    316.74339    270.80685   -34.629535    31.234217    45.936538    40.095861 
100564000    266.17854    296.25328    294.29288   -34.436292    30.426019    1.9603959     40.09778 
100568000    275.25574    326.88611    284.38743   -36.519965    31.545538    42.498681    40.098302 
100572000    281.75281    345.73808    290.09138    -35.93228    30.431645    55.646704    40.098569 
100576000    276.04229    300.61482    305.54033   -34.659047    28.521698   -4.9255079    40.099104 
100580000    270.58443    311.50024    277.88581   -33.924061    30.389272    33.614437    40.100939 
100584000    277.34864    339.67408     279.3233   -35.534932    31.086365    60.350777    40.100791 
100588000    277.52482    327.01805    301.97342   -34.255755    29.117859    25.044629     40.10117 
100592000    278.77913    341.20001    277.50172   -35.990056    30.724174    63.698282    40.102471 
100596000    278.21347    329.66674    284.10205   -34.541426    30.094615    45.564698    40.102266 
100600000    276.94176    311.97985    287.00561   -34.409943    30.801195    24.974247    40.102165 
100604000    265.80066    305.55781    268.64863   -34.520265    31.484803     36.90918    40.103011 
100608000    276.58091    324.67438    291.40988   -35.627059    30.326484    33.264492     40.10451 
100612000    272.52398    325.39076    271.34946   -34.964347    30.280659    54.041302    40.105289 
100616000    268.82188    321.29253     278.3837    -34.65411    29.867746    42.908833    40.105394 
100620000    273.33754     325.5606    286.48624   -34.872663    30.129272    39.074368    40.105276 
100624000    271.89348    325.34141    272.35563   -34.507914    30.960056    52.985773    40.106243 
100628000    270.69857    321.85764    275.79109   -34.199855    29.738064     46.06655    40.107157 
100632000    274.26213    321.87637     295.9451   -35.524335    28.221381    25.931273    40.108023 
100636000    277.36419    311.24944    283.94519   -35.627569    29.649984    27.304249    40.107949 
100640000    282.90316    339.32603    277.13615    -35.72239     30.03739    62.189878    40.108175 
100644000    274.52106    317.62793    290.51403   -35.681272    29.256628    27.113908    40.108728 
100648000    274.01603     303.7674     304.3067   -34.643662    29.822047  -0.53929738    40.109393 
100652000    277.08281    322.95346    282.95933   -34.864216    30.596125    39.994125    40.108962 
100656000    268.55889    316.03912     283.4386   -33.816486    30.734551    32.600511    40.108316 
100660000    274.16378    329.66122    278.25636   -35.851481    30.186178    51.404859    40.108197 
100664000     275.8834    327.98882    264.02054    -35.74797    31.293376    63.968277    40.108793 
100668000    274.16382    309.81804    293.25883   -34.991815    30.441893    16.559213    40.107317 
100672000    272.32439    315.15114    288.63333   -34.338021    29.686837    26.517806    40.105827 
100676000    266.61053     316.0676    282.86884   -34.637048    30.114823    33.198767    40.105322 
100680000    268.61061     309.2797    280.15641   -34.413447    31.591475    29.123294    40.106281 
100684000    277.34761    338.32971    269.67398   -36.345011    29.715581    68.655733    40.106487 
100688000    274.65797    327.79075    281.59094   -34.573792    30.910816    46.199815    40.107147 
100692000    277.70734    330.25165    277.78031   -34.925684    30.779357     52.47134    40.106301 
100696000    264.44584    304.67294    271.04691   -33.985209    30.446966    33.626035    40.107452 
100700000    284.68316    334.30764    302.85383   -35.456631    29.196842    31.453811    40.108302 
100704000    269.67678    305.24358    264.88866   -34.402696    30.239466    40.354926    40.108672 
100708000    270.89546    325.93199    262.05378   -35.658677    31.700814    63.878213    40.107721 
100712000    284.49287    326.20386     283.7227   -36.619994    30.313337    42.481164    40.107616 
100716000    278.60033    337.47637    274.97672   -36.642276    30.126077    62.499649    40.107073 
100720000    285.66176    350.32211    282.10445   -38.033179    30.933169    68.217662    40.107277 
100724000    269.91479    322.11177    259.68155   -34.774228    31.968915    62.430216    40.107285 
100728000    266.75051    295.94679    273.74303   -34.095952    31.152063    22.203753    40.106875 
100732000    280.75806    338.99497    297.60234   -35.949509    29.630227    41.392636    40.107075 
100736000    268.06143    326.67056    249.06425   -34.542769    32.163602    77.606318    40.108761 
100740000    272.71692    329.43398    297.72421    -35.50965    29.690965    31.709766    40.108726 
100744000    270.97659    316.76003    287.16091   -35.384292    30.254956    29.599121    40.109302 
100748000    267.93445    320.45635    263.40763   -35.337326    31.174275    57.048724     40.10922 
100752000    274.93957    319.38239    267.21804   -35.149187    31.111192    52.164347    40.109288 
100756000    272.27995      321.618     263.2348    -35.53659    30.828209      58.3832    40.108727 
100760000    283.80831     312.6273    313.31474   -34.485473    29.353822  -0.68744683    40.108608 
100764000    271.27947    315.25006    269.60614   -34.175941    31.490305    45.643916    40.109179 
100768000    273.88236    321.64631    267.25913   -34.178352    31.472781    54.387178    40.109567 
100772000    270.49256    331.95196    280.33253   -34.982378    30.847042     51.61943     40.11043 
100776000    278.98451    328.59887    283.55164   -36.885365     30.75501    45.047229    40.110198 
100780000    268.19122    318.96653    273.33074   -35.123798    31.269711    45.635792    40.110031 
100784000     264.2538    310.32658    268.54295   -34.463417    31.676684    41.783631    40.109359 
100788000    268.45845    322.19551    264.88782   -35.448044    30.855297    57.307684    40.110164 
100792000    273.67653    320.38837    277.06688   -35.065417    31.028551    43.321492    40.109161 
100796000    277.21554    332.36387    280.15266   -34.837174    30.841288    52.211216    40.108497 
100800000    283.83635    323.39148    311.59958   -35.025705    29.649185    11.791903     40.10775 
100801000    271.62629    299.90779    296.66123   -34.206422    30.326167    3.2465584     40.10775 
Loop time of 21246.2 on 4 procs for 16000000 steps with 1498 atoms

Performance: 16.266 ns/day, 1.475 hours/ns, 753.077 timesteps/s
99.6% CPU use with 4 MPI tasks x no OpenMP threads

MPI task timing breakdown:
Section |  min time  |  avg time  |  max time  |%varavg| %total
---------------------------------------------------------------
Pair    | 10616      | 14667      | 18843      |3286.1 | 69.03
Bond    | 65.341     | 102.99     | 137.98     | 343.6 |  0.48
Neigh   | 116.81     | 116.85     | 116.88     |   0.2 |  0.55
Comm    | 269.8      | 4173       | 8193.3     |6034.4 | 19.64
Output  | 8.027      | 8.11       | 8.3562     |   5.0 |  0.04
Modify  | 1131.6     | 1678.9     | 2259.2     |1002.4 |  7.90
Other   |            | 499.2      |            |       |  2.35

Nlocal:    374.5 ave 714 max 35 min
Histogram: 2 0 0 0 0 0 0 0 0 2
Nghost:    2375.25 ave 4255 max 496 min
Histogram: 2 0 0 0 0 0 0 0 0 2
Neighs:    13074.2 ave 25867 max 315 min
Histogram: 2 0 0 0 0 0 0 0 0 2

Total # of neighbors = 52297
Ave neighs/atom = 34.9112
Ave special neighs/atom = 0.518024
Neighbor list builds = 28405
Dangerous builds = 0

write_restart FINALCONFIG
WARNING: Using a manybody potential with bonds/angles/dihedrals and special_bond exclusions (../pair.cpp:218)
Neighbor list info ...
  update every 1 steps, delay 0 steps, check yes
  max neighbors/atom: 2000, page size: 100000
  master list distance cutoff = 16
  ghost atom cutoff = 16
  binsize = 8, bins = 3 3 23
  4 neighbor lists, perpetual/occasional/extra = 4 0 0
  (1) pair lj/cut, perpetual, skip from (4)
      attributes: half, newton on
      pair build: skip
      stencil: none
      bin: none
  (2) pair morse, perpetual, skip from (4)
      attributes: half, newton on
      pair build: skip
      stencil: none
      bin: none
  (3) pair eam, perpetual, skip from (4)
      attributes: half, newton on
      pair build: skip
      stencil: none
      bin: none
  (4) neighbor class addition, perpetual
      attributes: half, newton on
      pair build: half/bin/newton
      stencil: half/bin/3d/newton
      bin: standard

#and everyone lived happily ever after, THE END
Total wall time: 6:11:45
