LAMMPS (16 Mar 2018)
#lammps script for united atom polymer simulation (full-scale run)

# 1. INITIALIZATION
#allows pair, bond, bending and dihedral interactions
atom_style molecular

  # periodic (video game) boundaries in all cartesian directions
boundary p p s

  # uses real units (instead of units based on pair potential parameters).  List of units used in manual
units metal

###########
# 2. ATOM DEFINITION
##########

   ##
   # Read in data from starting configuration file
   ##

#read_data lammps-AT-config

 #use to restart
read_restart RESTART
  orthogonal box = (0 0 -29.1215) to (20 20 152.98)
  1 by 1 by 4 MPI processor grid
  1498 atoms
  197 bonds
  96 angles
  95 dihedrals
  2 = max # of 1-2 neighbors
  2 = max # of 1-3 neighbors
  4 = max # of 1-4 neighbors
  6 = max # of special neighbors

   ##
   # Specify the nature of the bond interactions
   ##

bond_style harmonic
bond_coeff 1 19.51 1.54
bond_coeff 2 22.45 1.82
bond_coeff 3 10000.0 2.0
special_bonds lj 0.0 0.0 0.0 angle no dihedral no

angle_style harmonic
angle_coeff 1 2.683 114.00
angle_coeff 2 2.683 114.40

dihedral_style opls
dihedral_coeff * 0.06071 -0.011743 0.1363628 0.0

mass  1   14.00
mass  2   32.06
mass  3  196.97
mass  4  196.97


pair_style hybrid lj/cut 14.0 morse 14.0 eam
pair_coeff 1 1 lj/cut 0.00395 3.95 14.0
pair_coeff 2 2 lj/cut 0.01594 3.62 14.0
pair_coeff 3 3 eam Au_u3.eam
Reading potential file Au_u3.eam with DATE: 2007-06-11
pair_coeff 4 4 eam Au_u3.eam
pair_coeff 1 2 lj/cut 0.0000 3.785 14.0
pair_coeff 1 3 lj/cut 0.00258 3.44 14.0
pair_coeff 1 4 lj/cut 0.00 3.44 14.0
pair_coeff 2 3 morse 0.879 1.47 2.7 14.0
pair_coeff 2 4 morse 0.000 1.47 2.7 14.0
pair_coeff 3 4 lj/cut 0.00 2.934 14.0


group freeze type 4
100 atoms in group freeze
fix startend freeze setforce 0.0 0.0 0.0



################
# 3.  Simulation Settings
###############

neighbor        2.0 bin
neigh_modify    every 1 delay 0 check yes



# Define some variables
variable Lx          equal xhi-xlo   # Ang
variable Ly          equal yhi-ylo   # Ang
variable Lz          equal zhi-zlo   # Ang

variable dz          equal ${Lz}/30  # Ang
variable dz          equal 182.10102/30  

variable zzlo        equal zlo  # Ang
variable zzhi        equal zhi  # Ang
variable vol         equal ${Lx}*${Ly}*${Lz}  # Ang^3
variable vol         equal 20*${Ly}*${Lz}  
variable vol         equal 20*20*${Lz}  
variable vol         equal 20*20*182.10102  
variable TEMP        equal 300.00 # K
variable TThi        equal 320.00 # K
variable TTlo        equal 280.00 # K
variable dt          equal 0.00025 # ps

timestep     ${dt}
timestep     0.00025

variable zlo1      equal -26.0
variable zlo2      equal -11.0
variable zhi1      equal 135.0
variable zhi2      equal 150.0

# heat layers

region          hot  block  INF INF INF INF ${zlo1} ${zlo2}
region          hot  block  INF INF INF INF -26 ${zlo2}
region          hot  block  INF INF INF INF -26 -11
region          cold block INF INF INF INF ${zhi1} ${zhi2}
region          cold block INF INF INF INF 135 ${zhi2}
region          cold block INF INF INF INF 135 150
compute         Thot all temp/region hot
compute         Tcold all temp/region cold


# Second Equilibration
fix             1 all nve
fix             hot all langevin ${TThi} ${TThi}  0.005 59804  tally yes
fix             hot all langevin 320 ${TThi}  0.005 59804  tally yes
fix             hot all langevin 320 320  0.005 59804  tally yes
fix             cold all langevin ${TTlo} ${TTlo} 0.005 287859 tally yes
fix             cold all langevin 280 ${TTlo} 0.005 287859 tally yes
fix             cold all langevin 280 280 0.005 287859 tally yes
fix_modify      hot temp Thot
fix_modify      cold temp Tcold

variable        tdiff equal c_Thot-c_Tcold
thermo_style    custom step c_Thot c_Tcold f_hot f_cold v_tdiff
thermo            4000
run             800000
WARNING: Using a manybody potential with bonds/angles/dihedrals and special_bond exclusions (../pair.cpp:218)
Unused restart file peratom fix info:
  fix style: STORE, fix ID: layers_COMPUTE_STORE
Neighbor list info ...
  update every 1 steps, delay 0 steps, check yes
  max neighbors/atom: 2000, page size: 100000
  master list distance cutoff = 16
  ghost atom cutoff = 16
  binsize = 8, bins = 3 3 23
  4 neighbor lists, perpetual/occasional/extra = 4 0 0
  (1) pair lj/cut, perpetual, skip from (4)
      attributes: half, newton on
      pair build: skip
      stencil: none
      bin: none
  (2) pair morse, perpetual, skip from (4)
      attributes: half, newton on
      pair build: skip
      stencil: none
      bin: none
  (3) pair eam, perpetual, skip from (4)
      attributes: half, newton on
      pair build: skip
      stencil: none
      bin: none
  (4) neighbor class addition, perpetual
      attributes: half, newton on
      pair build: half/bin/newton
      stencil: half/bin/3d/newton
      bin: standard
Per MPI rank memory allocation (min/avg/max) = 10.93 | 11.63 | 12.32 Mbytes
Step c_Thot c_Tcold f_hot f_cold v_tdiff 
16801000    342.00301    285.71769           -0           -0    56.285315 
16804000    339.05225    263.79915   0.33376572    2.4708207      75.2531 
16808000    333.02777    260.71888    2.5237616    1.9482267    72.308888 
16812000    317.85343    287.46446    3.1084963   0.50207289    30.388964 
16816000    319.35497     287.9564    3.1617004   0.64519444    31.398576 
16820000    300.76636     293.0318    3.9028093   0.85442185    7.7345628 
16824000     328.6099    264.44442    2.6903457    1.9058097    64.165476 
16828000    332.29974    293.46599    2.5208679  -0.34076719    38.833757 
16832000    335.12076    292.40239   0.78616964   0.58348578    42.718362 
16836000     340.6009    265.91337    2.0509948    1.9929382    74.687532 
16840000    328.40739    274.41152    1.3880692     2.738138    53.995876 
16844000    323.42806    278.38021     1.500703    1.9649269    45.047853 
16848000    338.97583    272.50525    1.4216002    2.1484849    66.470576 
16852000    327.62836    273.80138   0.85888885    2.4592423    53.826984 
16856000    307.81914    263.92652    1.8202803    3.0519365    43.892627 
16860000    318.26651    285.88487    2.5001734    1.9115061    32.381639 
16864000     322.6542    289.41481    2.0773784    1.5511188    33.239391 
16868000    313.27643    260.96455    2.4487543    2.8043791    52.311876 
16872000    326.63368     278.6029    1.6820795    2.6197297     48.03078 
16876000    326.46474    275.09406    2.4599154    2.7266594    51.370681 
16880000    302.89747    287.23341    3.0273059    1.4916074    15.664066 
16884000    319.81381    286.93572    2.0686051    2.2282476    32.878085 
16888000    344.56874    267.87752    1.6443046    3.1080507    76.691218 
16892000    317.13437    284.28298    2.8666836    2.2951905    32.851386 
16896000    319.03117    271.07062    1.2148019    1.9808585    47.960552 
16900000      330.609    274.31829    1.8921345    1.3948733    56.290704 
16904000    308.05406    275.74734    3.1633908    1.4673194    32.306723 
16908000     337.9512    278.95688    2.8825496    2.1840537     58.99432 
16912000    328.04571    269.94641    1.4043008    2.3325409    58.099299 
16916000     325.9417    288.85593    1.3097472     1.182638    37.085771 
16920000    303.41996    281.30725    3.6955237    2.0907635    22.112705 
16924000    288.40242    281.29149    3.6773716    2.4559546    7.1109321 
16928000    289.69557    286.02976    3.4129387    2.6117493    3.6658143 
16932000    332.46482    263.77384    1.1779582    4.0148242    68.690972 
16936000    297.26704    306.11843    3.4516803    1.7346417   -8.8513847 
16940000    322.47066    285.66158    2.5319088    2.1523108     36.80908 
16944000    337.77325    271.70051    1.9123366    2.9671131    66.072737 
16948000    341.25398    289.16121   0.91575761    2.8672079    52.092777 
16952000    317.59617    257.37169    2.3632502    3.6537979    60.224483 
16956000    314.29549    300.74113    2.1485803    1.4532363    13.554364 
16960000     324.6936    283.39429    2.9242173     1.950165    41.299314 
16964000    318.13191    289.18631    3.4338576     2.311208    28.945596 
16968000    327.38069    301.60359    2.8744461    1.2572303    25.777098 
16972000    336.02439    287.31967    2.8543905    2.4455285    48.704721 
16976000     304.8336    269.97548    4.4675444    3.7245806    34.858114 
16980000    321.52487    269.36279    4.3502279    3.4430583    52.162081 
16984000    318.80622    295.35087    3.6161295    1.4131767    23.455354 
16988000    332.96466    269.15385     2.904093    3.7426932    63.810814 
16992000    338.04215    266.29917    3.2639265    4.6962903    71.742975 
16996000    338.59798     273.6514    2.4252161    3.8458209    64.946584 
17000000    327.37463     269.3036    3.6744491    4.0214273     58.07103 
17004000    296.76908    291.73344    4.7686889     2.965863    5.0356404 
17008000    330.64176    274.65422    1.9428607    3.5611806    55.987545 
17012000    318.34897    270.29903    4.3232219     3.565979    48.049944 
17016000    315.24966    269.89391    3.8078044    2.4596209    45.355759 
17020000    303.88149    275.63832    5.8974277    2.1399984    28.243175 
17024000    326.93693    267.38991    3.7072304    3.6945644     59.54702 
17028000    327.58502    285.43398    3.3863791    2.9426801    42.151032 
17032000     350.0021    263.93346    3.6264552    3.8471727    86.068648 
17036000    321.24022    256.25526    3.8189914    4.3073292    64.984957 
17040000    320.92204    282.12448    5.7248377    3.0451636     38.79756 
17044000    314.12485    281.00278    4.5724221    3.1086827     33.12207 
17048000    315.12135    283.66016    4.7471482    3.8873982    31.461183 
17052000    312.35676    265.26696    4.4339458    3.7551563    47.089802 
17056000    349.92828    290.04474    2.8934566    2.0068384    59.883546 
17060000    325.39401    270.77337    2.6463705     3.858375    54.620644 
17064000    339.97504    294.32303    2.7160931    1.9763955    45.652001 
17068000    322.61212       299.96    2.6999605    1.0763975    22.652119 
17072000    325.11081    284.50017    2.3653489    1.1783791    40.610638 
17076000    287.67541    288.74285    4.3518376     2.426423   -1.0674456 
17080000    329.22362    278.77904    1.5621379     2.879286    50.444584 
17084000    312.51206    275.21093    3.0458129    3.0151063    37.301131 
17088000    319.78172    280.06113    2.4152471    2.8402364     39.72059 
17092000    338.97986    279.55649    1.7827952    2.7844364    59.423366 
17096000    311.46645    258.72081    4.1231422    3.6828904    52.745634 
17100000    313.11984    276.65998    3.8025186    2.5649989    36.459861 
17104000    290.74963    263.18326    4.4861494    4.3696976    27.566369 
17108000    335.01901    264.31169   0.97373739    3.6954149    70.707328 
17112000    326.10031    298.12538    2.3614122    1.8290923    27.974933 
17116000    312.90725    260.53023    4.3419471    5.3156807    52.377018 
17120000    317.71707    263.98064    3.2158196    4.3899714    53.736433 
17124000    326.93802     279.5169    4.1251026    2.3877339    47.421114 
17128000    332.34043    257.06091    3.4194175    3.9169246    75.279512 
17132000    300.64875    277.29119    3.4220417    1.8683606    23.357558 
17136000    329.66369    274.09689     2.326979    2.2323702    55.566792 
17140000    307.73813    285.58344    3.0923555    1.9182426     22.15469 
17144000    320.87493    276.20089    3.3255688    3.1213382    44.674041 
17148000    333.47774    279.13814    3.1480951    3.7464616    54.339601 
17152000     329.6457    296.20141    3.6228262    3.0377148     33.44429 
17156000    334.45875    262.61358    3.0763845    3.4776914     71.84517 
17160000     326.4716    279.19655    2.7558596    3.4776252    47.275053 
17164000    333.36098    281.81323    2.6917206    3.6380054    51.547756 
17168000    300.58362     277.5539    3.5264558    2.9954781    23.029724 
17172000    333.99641    280.51691    2.1098517    2.7669465      53.4795 
17176000    301.08589    284.26736    4.5661006    3.0035808    16.818534 
17180000    301.04909    281.22213    3.2347575      2.66069    19.826955 
17184000    302.01194    276.00488    3.2920989    3.1915626    26.007059 
17188000    332.92309     265.1103    1.7533311    3.9912596    67.812796 
17192000    309.97023     278.2738    2.2016899    3.6776795    31.696431 
17196000    325.70213    280.78649    1.0985114    3.4116159     44.91564 
17200000    323.04199    275.40449    1.5784905    3.5544559    47.637493 
17204000    314.58054    274.25844   0.48550434    3.7404031    40.322102 
17208000    326.60306    269.62234    1.0762992    4.3764707    56.980721 
17212000    324.02887    274.93529   0.89774949    3.9488243    49.093585 
17216000    337.43242    266.70885    1.9298865    3.6457393    70.723568 
17220000    336.23324    305.74868    2.4335188    2.1228508    30.484566 
17224000    324.18714    312.43002    3.1221327   0.54340998     11.75712 
17228000    313.06345    291.87223    3.0742892    1.9864591    21.191222 
17232000    280.28614    286.05826    4.5787181    3.0218534   -5.7721149 
17236000    320.95263    297.95546    2.6849427    1.4457427    22.997179 
17240000    308.82553    276.19466    3.5334389    2.7480451    32.630863 
17244000    323.42209     289.3037    1.0694438    1.6296993    34.118394 
17248000    326.57926    269.14351    1.8509876    3.4048952    57.435755 
17252000    313.11241    275.64643    3.0937147    3.6680839    37.465986 
17256000    325.70625    288.02021    2.2382567    2.9322508    37.686044 
17260000     327.6875    279.42541    3.2002184    2.8548042    48.262091 
17264000    335.62742    272.57228    1.5054488    4.2432821    63.055134 
17268000     301.4324    273.15626    3.8384075    3.1860686     28.27614 
17272000    314.10593    299.62302    2.6191495    2.0621811    14.482912 
17276000    313.94291    279.62397    2.9826545    2.7328455    34.318935 
17280000    336.98301    266.88902    1.9051758    4.8627167    70.093996 
17284000    320.62034    290.34112    2.2365907    2.8034646    30.279223 
17288000    328.14684    279.27879    2.3749441    2.7329673    48.868055 
17292000    322.19599    253.18764     2.845675    3.6801594    69.008353 
17296000    315.19587    274.83147     3.453543      3.03965    40.364397 
17300000    341.81951    284.81354    2.7269902    2.2452294    57.005969 
17304000    302.59525    268.70703     4.411389    2.2953716    33.888228 
17308000    308.14414    302.20325    2.9845093    1.0188678    5.9408877 
17312000    312.56452    289.76216    3.4636505    2.8807627    22.802367 
17316000    322.31497    272.81678    3.7277474    3.5192119    49.498188 
17320000    344.71191    276.80358    3.9791343    3.7837336     67.90833 
17324000    297.39826    305.20545    4.7779641    2.3438707    -7.807184 
17328000    321.81829     290.4702    2.8599846    2.9162321    31.348085 
17332000    322.55846    278.54086    3.2522153    3.2009455      44.0176 
17336000    316.78866     288.0248    2.1849186    2.1515348    28.763856 
17340000    326.93504    298.81068    3.6562958    1.3087662    28.124357 
17344000    329.26033    276.56271    3.5657569    2.7507101    52.697624 
17348000    293.93905    268.15579    5.0414515     3.639042    25.783261 
17352000    315.43604    295.67105    4.3473817    2.1763008    19.764992 
17356000    318.45953     265.9676    3.3499154    4.0491185    52.491931 
17360000    313.84277    285.59553    3.8263804    3.4366275    28.247241 
17364000     310.3343    272.47853    4.3350983    2.6818388    37.855769 
17368000    300.31011     293.2132    4.8531015    1.9298284    7.0969116 
17372000    333.20634    283.72364     1.586796    1.7064374    49.482693 
17376000    326.75822     259.7838    1.7431974    2.7880199    66.974417 
17380000    323.20053    294.66684    2.7252514   0.91441497    28.533693 
17384000    315.07151       282.79     1.696823    2.2128392    32.281511 
17388000    327.47087    280.71604    1.6429631     2.328068    46.754834 
17392000    304.31096     291.5872    3.7376026    2.1588314    12.723766 
17396000    332.90935    297.42109    1.4681305    1.1086061     35.48826 
17400000     317.9042    270.94525    1.9799145    2.4469887    46.958947 
17404000    318.78668    264.31174    1.1402545    4.0051394    54.474942 
17408000    319.00002    286.11493   0.95376092    2.1450075    32.885094 
17412000    294.60796    306.24859    2.7096246     2.211036   -11.640637 
17416000    301.84373    289.00198    2.2299833    2.2098056    12.841742 
17420000    297.02656    292.45509    1.8525141     2.574073    4.5714671 
17424000    313.40727    297.14041   0.99081737     1.642877    16.266853 
17428000    299.09808    274.53393    2.6663875    3.3740965    24.564151 
17432000    304.65624    273.08593    1.4040082    2.9380053    31.570311 
17436000     348.4936    270.63842   0.19238094    3.3989224    77.855178 
17440000    292.92569    259.35836    1.5494277    3.8587846     33.56733 
17444000    345.32714    292.41272   -1.2905429    3.4532289    52.914421 
17448000    357.25853    277.59675   -2.2542449    2.8389326    79.661781 
17452000    321.68529    297.38763 -0.015606025    2.9710117    24.297657 
17456000    336.76479    291.17959  -0.38057951    3.0766835    45.585196 
17460000    361.90756    264.38975   -1.9384397    4.2858182    97.517818 
17464000    320.65061    274.46156 -0.014629842    4.4324453    46.189051 
17468000    318.84086    264.06844   0.87211372    4.2340952    54.772416 
17472000    312.24351    251.24268   0.53135891    5.3525969    61.000833 
17476000    308.10196    271.56103    1.0362146     3.136381    36.540931 
17480000    302.34529    280.25707    1.0212554    3.1583421    22.088228 
17484000    303.33316    272.79852    1.4499463    3.5459428    30.534638 
17488000    349.18668    263.38434  -0.68243262    4.1197967    85.802342 
17492000    312.69425    296.09909    1.3043019    2.3785266    16.595158 
17496000    321.32181    281.76744  -0.54469848    3.6664291     39.55437 
17500000    359.31545    276.50789   -1.6812268     3.359746    82.807567 
17504000    327.00542     278.6355   0.11448702    3.2498018    48.369921 
17508000    308.57245    285.80898   0.83642103    3.0175421    22.763464 
17512000    340.35628    257.20643  -0.20386369    5.5715906    83.149858 
17516000    316.11456     271.5848  -0.37275117    3.9372736    44.529753 
17520000    329.17877    260.32431   -1.0339867    4.6368704    68.854464 
17524000    318.83749     287.5402   0.64450993    3.8445428    31.297294 
17528000    327.18994    279.55155   0.33040302    3.6230046    47.638395 
17532000    313.26612    284.60561    1.1486039    4.2947534     28.66051 
17536000    310.49657    286.34384   0.79032718    4.8478926    24.152725 
17540000    330.63729    259.19125   0.78025819     6.497787    71.446046 
17544000    308.85883     276.0472    2.2721493    5.4020933    32.811636 
17548000    319.67018    279.49427   -1.3669599    5.5078132     40.17591 
17552000    317.88253    286.25599   0.95761208    4.6415642    31.626537 
17556000    317.76648    262.97376  -0.47550786    7.1381349    54.792729 
17560000     332.6529    267.54053      -1.2894    5.2297792    65.112361 
17564000    311.83242    264.90891    1.1325804     6.096144    46.923508 
17568000    315.71091    275.15459    1.7876993    5.2903848    40.556323 
17572000    328.35138    271.92293    1.0296059    6.2591373    56.428448 
17576000    338.89397    303.53283    1.0643236    2.9647339    35.361141 
17580000    317.14612    270.43913    1.0646324    4.8789099    46.706988 
17584000     330.2876    263.78638   0.43929968    4.4444111    66.501219 
17588000    338.74556     274.0767    1.3986618    5.1328206    64.668856 
17592000     295.9873    262.52995    2.1314293    4.9271819    33.457352 
17596000    311.37799    279.73817    1.0103927    4.9693955    31.639824 
17600000    322.62961    273.95049   0.31153826    4.6569891    48.679121 
17601000    313.08214    287.61172    1.9797485    4.4026375    25.470412 
Loop time of 1061.68 on 4 procs for 800000 steps with 1498 atoms

Performance: 16.276 ns/day, 1.475 hours/ns, 753.521 timesteps/s
99.6% CPU use with 4 MPI tasks x no OpenMP threads

MPI task timing breakdown:
Section |  min time  |  avg time  |  max time  |%varavg| %total
---------------------------------------------------------------
Pair    | 530.93     | 734.2      | 942.45     | 736.7 | 69.15
Bond    | 3.2864     | 5.1395     | 6.8924     |  76.2 |  0.48
Neigh   | 5.8977     | 5.8993     | 5.9006     |   0.0 |  0.56
Comm    | 13.424     | 209.26     | 409.62     |1351.7 | 19.71
Output  | 0.004484   | 0.015836   | 0.029392   |   7.1 |  0.00
Modify  | 55.984     | 82.247     | 110.05     | 220.7 |  7.75
Other   |            | 24.92      |            |       |  2.35

Nlocal:    374.5 ave 714 max 35 min
Histogram: 2 0 0 0 0 0 0 0 0 2
Nghost:    2373.5 ave 4254 max 496 min
Histogram: 2 0 0 0 0 0 0 0 0 2
Neighs:    13093.8 ave 25914 max 310 min
Histogram: 2 0 0 0 0 0 0 0 0 2

Total # of neighbors = 52375
Ave neighs/atom = 34.9633
Ave special neighs/atom = 0.518024
Neighbor list builds = 1431
Dangerous builds = 0
unfix 1


# PRODUCTION

fix             1 all nve
fix             hot all langevin ${TThi} ${TThi}  0.005 59804  tally yes
fix             hot all langevin 320 ${TThi}  0.005 59804  tally yes
fix             hot all langevin 320 320  0.005 59804  tally yes
fix             cold all langevin ${TTlo} ${TTlo} 0.005 287859 tally yes
fix             cold all langevin 280 ${TTlo} 0.005 287859 tally yes
fix             cold all langevin 280 280 0.005 287859 tally yes
fix_modify      hot temp Thot
fix_modify      cold temp Tcold

variable        tdiff equal c_Thot-c_Tcold
thermo          4000

dump gigo all atom 4000 dump.cords_xyz.dat
dump_modify gigo scale no
dump vfgigo all custom 4000 dump.velo.dat id vx vy vz fx fy fz

# thermal conductivity calculation
# # reset langevin thermostats to zero energy accumulation
#
compute         ke all ke/atom
variable        temp atom c_ke/1.5/0.00008617333262

fix             ave all ave/time 100 40 4000 v_tdiff ave running
thermo_style    custom step temp c_Thot c_Tcold f_hot f_cold v_tdiff f_ave

#compute         layers all chunk/atom bin/1d z lower 0.05 units reduced
compute         layers all chunk/atom bin/1d z lower ${dz} units box
compute         layers all chunk/atom bin/1d z lower 6.070034 units box
fix             2 all ave/chunk  100 40 4000 layers v_temp file profile.langevin

run             16000000
WARNING: Using a manybody potential with bonds/angles/dihedrals and special_bond exclusions (../pair.cpp:218)
Neighbor list info ...
  update every 1 steps, delay 0 steps, check yes
  max neighbors/atom: 2000, page size: 100000
  master list distance cutoff = 16
  ghost atom cutoff = 16
  binsize = 8, bins = 3 3 23
  4 neighbor lists, perpetual/occasional/extra = 4 0 0
  (1) pair lj/cut, perpetual, skip from (4)
      attributes: half, newton on
      pair build: skip
      stencil: none
      bin: none
  (2) pair morse, perpetual, skip from (4)
      attributes: half, newton on
      pair build: skip
      stencil: none
      bin: none
  (3) pair eam, perpetual, skip from (4)
      attributes: half, newton on
      pair build: skip
      stencil: none
      bin: none
  (4) neighbor class addition, perpetual
      attributes: half, newton on
      pair build: half/bin/newton
      stencil: half/bin/3d/newton
      bin: standard
Per MPI rank memory allocation (min/avg/max) = 12.03 | 12.29 | 12.44 Mbytes
Step Temp c_Thot c_Tcold f_hot f_cold v_tdiff f_ave 
17601000    275.59158    313.08214    287.61172           -0           -0    25.470412            0 
17604000    274.53075    339.06025    259.11346    -1.796817    2.0934343    79.946785            0 
17608000    273.01795    332.99511    258.38617   -1.7932497   0.61494381    74.608939    35.467567 
17612000    278.17152    319.60032    286.60817   -2.7963397  -0.25561625    32.992148    37.086088 
17616000    275.44478    317.73665    290.34983   -2.0966265  -0.88504273    27.386812    38.353604 
17620000    275.69697    306.96733    296.08226   -2.1965447   0.28247806    10.885067    38.491909 
17624000     275.1298    327.02641    266.92655   -3.2970412    1.3020921    60.099858    39.609528 
17628000    283.27354    328.03946    294.98783    -3.608125  -0.51140338    33.051637    39.472264 
17632000    273.53042    327.65038    282.36136   -4.0886732  -0.16945578    45.289026    39.400002 
17636000    283.98762    352.79553    267.76054   -4.7100563    1.5836543     85.03499    39.649666 
17640000    276.38945    344.98275    278.86843   -3.6117475     1.268198    66.114317    39.844084 
17644000    273.89505    311.81574    277.42003   -2.5184489    1.2449784    34.395705     39.65223 
17648000    276.50747    325.98739    275.29111    -2.778888   0.93367544    50.696272    39.773772 
17652000    279.44042    318.77489    277.31959   -2.4397579    1.2333446    41.455292    39.587842 
17656000    269.66683    307.62194    264.76364   -1.8521849    1.2948139    42.858299    39.514894 
17660000    276.91001    329.09206    289.68323   -3.5158581   0.10980143    39.408833     39.59594 
17664000    275.89067    317.76735     287.6967   -1.7839218  -0.11821619    30.070648      39.6281 
17668000    274.38655    334.49465    260.80539   -2.3631473    1.8421939    73.689258    39.527076 
17672000    273.13742    317.11352    275.11483   -3.3103296    1.0568939    41.998685    39.838934 
17676000    274.68932    322.08391    277.71159   -2.9643216    1.4764811     44.37232    39.867958 
17680000    270.63554    292.20891    280.08178   -1.9744278   0.69876949    12.127126    39.832975 
17684000    273.42211    327.32245    284.13288   -3.1062338    1.4324714    43.189562    39.735356 
17688000    277.59107    340.82591    269.14781   -3.5402682    1.1152545    71.678103    39.694319 
17692000    266.97682    305.36759     276.5172   -1.6973349    1.0276919    28.850387    39.355242 
17696000    274.08923    320.65395    276.71344    -2.196473   0.69514995    43.940508    39.354055 
17700000    276.14901    309.70729    284.11756   -1.2163295  -0.22198481     25.58973    39.364664 
17704000    279.42955    322.72689    271.10013   -2.2143206    1.9764577    51.626767    39.500503 
17708000    279.29685    333.11284    277.10054   -2.4933097    1.4281171    56.012299    39.507769 
17712000     272.8409    314.51221    273.94721   -1.9968612   0.77149086       40.565    39.272704 
17716000    282.27895    323.04558    290.81158    -1.841716   0.72178296    32.233997    39.098265 
17720000    265.63586    297.60573    265.87109   -1.6177208    2.6971495    31.734632    39.144322 
17724000    270.93535    299.68702    272.74761   -1.7305484    2.0976161    26.939412    39.216305 
17728000    263.75787    297.56577    281.17033   -1.8227127    1.6815849    16.395435    39.147655 
17732000    276.33342    332.01405    265.37841   -2.7106806    1.6883237    66.635639    39.286412 
17736000    264.45005    292.12246    296.46992   -1.6953582    1.2487768   -4.3474599    39.216989 
17740000    274.31883    313.33745    271.81815    -2.171276    1.6545785      41.5193    39.282039 
17744000    282.03404     336.2955    285.22925    -3.153591    1.4037049    51.066252    39.323012 
17748000    275.90677    335.07538    266.37166    -3.010416    1.5548766    68.703716    39.303023 
17752000    266.20075    319.00803    261.56674   -1.6307867    2.6475557    57.441287    39.405195 
17756000    274.26988    328.86304    275.99296   -3.3231524    2.3576319    52.870083    39.438551 
17760000    270.22639    305.28524    283.92881   -2.2926212    2.9167516    21.356431    39.645212 
17764000    280.27049    319.10308    290.22315   -2.3360385    1.9919411    28.879931    39.729948 
17768000    271.55851     303.0656    284.26658   -1.3615235    1.8728506    18.799026    39.729037 
17772000    276.95819    328.23148    264.02781   -4.0023686    3.6632305    64.203677    39.780503 
17776000    264.11045    301.84509    276.85057   -2.5682268    2.8628653    24.994528    39.704325 
17780000    275.03162    329.28675    280.25273   -3.5469007    2.8466166     49.03402    39.653145 
17784000     276.2785    334.46231    278.24107   -3.2913711    2.0753637    56.221242    39.666243 
17788000    271.15411    311.06719    288.89714    -2.238232     1.761744    22.170054    39.763568 
17792000    276.30841    347.54604    291.08592   -5.5356946     2.591066     56.46012    39.765743 
17796000    281.05638    358.64968     281.0998   -5.6708787    2.5414339    77.549884    39.706565 
17800000     284.9985    333.47255    310.53282   -3.8353538    1.6641867    22.939732    39.615564 
17804000    271.55786    313.92466    278.30771    -2.760018    2.0516769    35.616957    39.611791 
17808000    275.71403    338.15465    276.07223   -4.5673295    2.5208552     62.08242    39.548394 
17812000    269.04826    313.60082    268.25232   -2.9050488    2.8160277    45.348506    39.577413 
17816000    275.57518    325.21307    282.59037   -4.0483631    1.4376014    42.622697    39.600969 
17820000    277.48256    321.20899    297.68334   -3.2721661    1.6483456    23.525646    39.614557 
17824000    266.82013    313.93317    262.92392   -2.4265616    3.1685014    51.009243    39.646933 
17828000    265.39533    328.22872    258.50654   -3.7929538    3.2258972    69.722179     39.70367 
17832000    275.04545    330.95178    253.00227   -4.4678284     2.526394    77.949506    39.641322 
17836000    278.85766    334.59749     284.3128   -4.3781822    1.5123407    50.284697    39.643647 
17840000    273.29555    310.67488    277.99436   -4.2138688    2.1502005    32.680524    39.588725 
17844000    273.50317     337.0784    265.09605   -3.5011515    2.6780437    71.982345    39.504565 
17848000     269.6611    312.97047    276.91495   -2.3993345    2.5300103    36.055515    39.535087 
17852000    281.74801    343.71445    276.36373   -4.4868654    2.2000076    67.350724    39.524113 
17856000    274.49082    306.06586    279.38048   -2.5143584    1.8042516    26.685384    39.500684 
17860000    272.37634    317.95753    278.11287   -2.9630078    2.2118265    39.844667    39.529753 
17864000    283.48971     349.5249    271.69272   -4.8037893    2.3069899    77.832178    39.480753 
17868000    275.03604    312.37206    282.38427   -2.8515427    2.2710481    29.987791    39.544119 
17872000    275.33078      327.231    276.47557   -4.4212988    1.7930389    50.755424    39.571661 
17876000    267.85635    303.49897    272.93515   -3.0742873   0.88114807     30.56382    39.614565 
17880000    279.94758    336.32239    286.90636   -4.5302296   0.70264756    49.416032    39.675325 
17884000     294.9339    353.80612    283.62505   -5.5563183   0.64585935    70.181068    39.695168 
17888000    283.15872    336.43191    274.12413   -5.3744905    1.8359989    62.307782    39.720825 
17892000    281.12695    329.61478    272.50522   -4.0084918    1.1117494    57.109562    39.761087 
17896000    281.07022    297.80881    283.22257   -3.3006422   0.83358846     14.58624    39.756841 
17900000    275.61384    319.68644    252.60125   -2.8296246     1.294295    67.085182    39.771064 
17904000    277.63917    300.03891    288.16931    -2.066907   0.52167882    11.869595    39.822125 
17908000    271.35877    303.66214    266.64068   -2.5925291    2.0177957    37.021466    39.787977 
17912000    286.65564    337.89131    290.58347   -3.7426632   0.04206585    47.307841    39.755085 
17916000    274.50453    324.76637     274.3792   -3.4561677    1.2144064    50.387166    39.753781 
17920000    278.22671    320.49268    273.83756   -3.7706275   0.99840219    46.655115    39.826293 
17924000    279.63349    316.60917    287.75767   -3.5633149    1.1054212    28.851496     39.87211 
17928000    271.48613    343.03521    266.20455   -4.7004274    1.6147326    76.830659    39.917512 
17932000    282.38855    320.46305    271.37483   -3.7885382    1.1759008     49.08822    39.949636 
17936000     286.6459    317.64839    288.74814   -2.9843064  -0.33618302    28.900249    39.954618 
17940000    278.58888    313.25768    263.21944   -3.9740816   0.94778471    50.038236    39.918767 
17944000    287.10436    350.01798    279.78585   -5.8738906  -0.77001708    70.232131    39.929253 
17948000    287.46219    317.39898    288.61119   -3.8299414   0.50952196    28.787791    39.930565 
17952000     274.0352    297.51813    261.12091   -1.9955797    2.5112387    36.397219    39.949206 
17956000    276.93331    305.52149    287.84873   -2.4163224  -0.08497819    17.672765    39.981186 
17960000    286.09973    346.45225    292.66061   -4.1661968  -0.33293818    53.791635    40.011466 
17964000    282.14282    330.43232     286.9462   -4.0746725   0.67145353     43.48612    40.046608 
17968000    272.75247    302.56809    275.98857   -2.6177666   0.78203648    26.579519    40.032467 
17972000     272.3941    309.03607    281.44313   -2.3943988   0.85678404    27.592941    40.025063 
17976000    271.69007    300.51981    272.48758   -2.4261087  -0.20546999    28.032232    40.067733 
17980000    278.36547    309.39761    262.31608   -2.6220458   0.94607553    47.081537    40.054587 
17984000    275.37771    307.93391     285.7293   -2.5353513  -0.30018482    22.204615    40.024318 
17988000    276.48052    326.61044     265.8999   -4.0209489   0.18251343    60.710539    40.064049 
17992000    271.06135    308.14627    250.99902    -2.862225    1.0884317    57.147252    40.069593 
17996000    288.86232    328.20087    297.58475   -3.8443008  -0.22433689    30.616122    40.015876 
18000000    277.11951    325.34547    274.45416   -3.4324654   0.85348834    50.891315    40.042349 
18004000    278.06468     320.8688    275.76284   -4.5713175   0.36258316    45.105964    40.036731 
18008000    286.32872    334.21348    300.81699   -4.2356656 -0.063951507    33.396495    40.009792 
18012000    269.04433    317.28762    258.23083   -3.3126698   0.60121307    59.056785    40.019589 
18016000    270.38202    326.50805    268.19641   -1.5880991    2.0345461    58.311639    40.063962 
18020000    276.01112    319.68224     276.2941   -2.3994071   0.44855903    43.388136    40.055787 
18024000    277.22791    310.49795    288.03582    -3.038233   0.64488118    22.462127    40.030271 
18028000    270.04279    302.47599    272.92186   -1.4502799   0.99284784    29.554128     40.05713 
18032000    280.31488    318.64777     288.0934     -2.20229    1.5508151    30.554367    40.046519 
18036000    284.83495    323.11383    296.08998   -2.9885405    1.2700742    27.023846    40.076457 
18040000    276.47697    322.90234    280.77408   -2.3030397    1.2840287    42.128253      40.0881 
18044000    270.59533    307.49448    287.91812   -2.1300206   0.13131896    19.576355    40.126678 
18048000     272.4954    315.08429    290.34516   -2.5408377   0.81184567    24.739139     40.18107 
18052000    266.42145    315.53836    267.02436    -3.131293    2.8655681    48.513999    40.136883 
18056000    271.25348    327.26739    263.81402   -2.5211839    1.8870284    63.453379    40.111679 
18060000    284.68994    327.68836    300.86296   -3.3951886    1.0610821    26.825398    40.125396 
18064000    284.83799    340.13695    310.95177   -3.3989279   0.81012684    29.185185    40.112503 
18068000    273.31594    301.53662    296.91309   -1.5845298    2.3968896    4.6235328    40.079574 
18072000    270.73138    296.14552    286.78406   -1.9139488    3.0506107    9.3614558     40.10079 
18076000    272.80544    309.31032    289.19384    -2.911572    2.1438232    20.116472    40.096997 
18080000    273.68004    322.67305    263.56837   -1.9281969    3.1770127    59.104676    40.042319 
18084000    285.31626    359.70306    283.81435   -5.1300841    2.2187951    75.888719    40.065164 
18088000    276.86961    336.02492    292.59829   -2.5280037    1.9783262    43.426624    40.041623 
18092000    265.85514    319.75636    265.53473   -1.3642083    4.2902734    54.221625    40.034776 
18096000    277.05816    332.95559    286.23235    -2.819006    2.4616361     46.72324    40.087208 
18100000    277.08303    340.37032    284.32446   -3.2790565    2.3540263    56.045861     40.15421 
18104000    278.43057    311.16969      293.398   -1.1101797   0.81071126    17.771684    40.174576 
18108000    275.24152    303.66684    289.26376   -2.0660672    1.6830924    14.403081    40.154707 
18112000    270.52393    308.26941    277.23603   -2.9802951    2.2805056    31.033374    40.152647 
18116000    279.39706    325.29035     284.8975   -3.5903988      1.08596    40.392852    40.189975 
18120000    277.60883    343.95002    279.52673   -4.6065892    2.8654605    64.423291    40.224283 
18124000    272.73237    316.46899    275.55712   -3.5392933    2.1556389    40.911872    40.222077 
18128000    273.71154    320.61916    266.05259   -3.4685946    3.4093899    54.566574    40.213825 
18132000    279.84394    338.48961    280.95047   -5.1390436    2.9823185    57.539141    40.247641 
18136000    276.39866     304.4842    278.81096    -4.754863    2.4530793    25.673236    40.210913 
18140000    282.66668    322.66427    294.85357   -4.3816102    1.5420589    27.810701    40.190084 
18144000    281.13905    322.04663    281.05633   -3.8467739    1.8254772    40.990303    40.186107 
18148000    277.63982    324.41229    278.42626     -4.03495    1.6859205     45.98603    40.151169 
18152000    266.55248    296.69159    273.11021   -1.8827981    2.7349645    23.581373    40.169817 
18156000    271.84479    330.44445    275.93098   -3.1349993    2.4592747     54.51347     40.15408 
18160000    283.34217    322.73711    293.43971   -3.1673644    2.4243554    29.297404    40.138348 
18164000    272.82144    309.84563    275.19448   -2.6888253    2.0996731    34.651153    40.144037 
18168000    267.12087    301.86092    267.85214   -2.5085718    3.1208587    34.008773    40.186201 
18172000    280.72158    348.55063    264.98191   -4.6830025    1.7201178    83.568719    40.182809 
18176000    283.52752    327.06957    284.85421    -4.688456    1.0887193    42.215358     40.15776 
18180000    275.45917      311.513    284.66115   -2.5710614    1.4443481    26.851851    40.136038 
18184000      281.419    319.73586    284.90029   -3.8935222    1.7631724    34.835565    40.155295 
18188000    279.02521    337.53494    280.78368   -4.9314038    1.1095086    56.751265    40.167525 
18192000    285.39146    313.26731    294.46947    -2.712342   0.46138624    18.797838    40.152384 
18196000    277.79483    328.81664    279.30928    -4.845607   0.79648231     49.50736    40.165979 
18200000     278.5344    321.23834    273.46743   -5.1818645    1.9356628    47.770906    40.204505 
18204000     288.6875    313.38074    303.78478   -4.7117995  -0.37893654    9.5959565    40.185082 
18208000    284.07132    307.16528    286.06828    -3.872323    0.9492466    21.096994    40.159935 
18212000    267.07388     287.4298    273.93642   -3.1371122    1.7861487    13.493375    40.167479 
18216000    273.41031    299.99902    270.67428   -2.7404733    1.7104114    29.324742    40.174905 
18220000    276.19073    298.35892    283.39705   -3.5842532   0.57635695    14.961871    40.177514 
18224000    286.60379    313.57021    312.52597    -4.480658  -0.18630079    1.0442469    40.160245 
18228000    275.83542    293.14878    281.84183    -3.053612   0.77697356    11.306953    40.177641 
18232000    275.32597    306.11345    282.33415   -4.5286841 0.0049034215    23.779295    40.167323 
18236000    296.11333    366.90473    293.57631   -6.0672608   0.43076745    73.328425    40.174594 
18240000    281.15557    318.80606    272.58068   -3.6659238   0.62670268    46.225372    40.174113 
18244000    280.25143    330.44162    279.85633   -4.7714594   0.51609909    50.585296    40.206268 
18248000    281.94175    312.12628    292.18858   -3.2886502   0.46747778    19.937704     40.22276 
18252000    280.06057    323.87861    275.23081   -4.9484334    1.5493862    48.647801    40.233483 
18256000    277.46793    325.48892     280.8712   -3.9346739    2.2799566    44.617723    40.265702 
18260000    283.45437    333.26674    286.00184   -5.2539833   0.31177648    47.264902    40.261252 
18264000     269.6641    300.26184    264.64902   -3.3097251    2.1576083    35.612819     40.25372 
18268000    283.40359    328.33706    280.99864   -4.4585202    1.9322869    47.338414    40.232969 
18272000    272.51282     304.6086    285.67455    -4.217115  -0.41993379    18.934045    40.210519 
18276000    282.73139    325.58688    290.81832   -4.3269579   0.29467736    34.768559    40.219955 
18280000    271.04523    304.97377    265.69785   -2.1410785    2.4580912     39.27592     40.21746 
18284000     277.1165    310.16994    295.42993    -2.966818   0.35809117    14.740007    40.219913 
18288000    286.75271    330.54097    287.95344   -3.7364058    1.0780781    42.587525    40.209823 
18292000     285.3554    331.23854    289.97162   -5.0208455   0.34549472    41.266923    40.199793 
18296000    268.35555    305.12395    263.95576   -3.1975477    2.9156016    41.168197    40.198951 
18300000    277.64795    331.23581    284.26988   -4.3298533      1.64391    46.965922    40.219011 
18304000    273.16191    319.72658    268.56159   -3.2490713    2.3851555    51.164986     40.20282 
18308000    273.27196    313.44894    277.66026   -3.9012049   0.86918047    35.788682    40.200695 
18312000     280.7237    315.68849    271.32155   -2.1774817   0.82028749    44.366945     40.18994 
18316000     277.8768    312.19798    266.84089   -2.4048158    1.7103953    45.357094    40.187113 
18320000    271.42373    309.46121    256.28603   -2.9278243    1.4758313    53.175179     40.19804 
18324000    280.43958    312.83527    280.74015   -3.8983899    1.6474134    32.095124    40.193591 
18328000    279.86147    332.73301    280.93416   -4.5661837    1.6984132    51.798857    40.213514 
18332000    272.93859    323.60122    284.62897   -3.8568765    1.8170291    38.972252    40.237893 
18336000    274.37655    303.82398     278.8027    -3.114953   0.81484242    25.021281    40.250674 
18340000    281.64865    314.04888    279.91352   -2.9104262    2.8198172    34.135367    40.236959 
18344000    280.79917    333.67281    282.09756    -4.042053   0.84258391     51.57525    40.243093 
18348000    276.63908    322.04196    263.52468     -4.17531    2.6861679    58.517277    40.230567 
18352000    273.77826    323.38979    272.95002   -3.7920442   0.62741493    50.439764    40.225609 
18356000    280.77117    336.66207    262.85316   -6.0996289    2.3677201    73.808906    40.241293 
18360000      286.204    356.87354    273.56685   -6.9708189    0.9007967    83.306685    40.249537 
18364000    285.00259    315.05639    282.70943   -3.0568588   0.91921071    32.346955    40.253478 
18368000    280.46575    331.29154    275.52823   -3.7396996    0.8777884    55.763309    40.242637 
18372000    276.97213    320.66927    275.14365   -3.3494199    1.7811916     45.52562    40.253364 
18376000    286.48382    331.32638    278.99529   -4.6198252    1.2301387    52.331083    40.235533 
18380000    290.07325     324.1871    299.94868    -3.506934   0.32067481    24.238418    40.246389 
18384000    288.08649    327.50447    281.67506   -4.7584369    0.9027848    45.829412    40.251584 
18388000    283.79525    338.11153    287.36438   -3.7351586    1.4345316     50.74715     40.23559 
18392000    281.43752    310.13932    270.94532   -4.6193159    1.0885627    39.194002    40.242201 
18396000    276.58862    305.45664    279.03714   -3.7256444    1.6108885    26.419501    40.252021 
18400000    275.53414    323.38454    259.25689   -4.0405885    2.6943171    64.127642    40.286166 
18404000    277.11726    316.52882     284.5091   -3.7364843 -0.097126324    32.019713    40.286109 
18408000    277.67539    312.62212    285.48622   -3.3384967   0.44805396    27.135898    40.274758 
18412000    275.29576    311.72052    278.20927   -3.6671399    1.0952628     33.51125    40.286126 
18416000    282.07029    313.59685    285.48351    -3.944741   0.95879914    28.113342       40.256 
18420000    277.13537    327.16454    283.14192   -4.3409989     0.877465    44.022615    40.234062 
18424000    275.51551    306.44144    292.17906   -3.4847209    1.2048445    14.262384     40.24736 
18428000    281.51747    329.49345    283.86338   -3.5218052     1.881446     45.63007    40.238959 
18432000    272.08115    328.28496    258.07032    -3.751765     2.762769    70.214633    40.240201 
18436000    279.73558    324.34389    294.08944   -3.2507087    2.2410288    30.254449    40.236803 
18440000    277.75945    318.95497    261.81177   -2.8408203    2.9796883    57.143192    40.217768 
18444000    274.44373    320.70641    265.05163   -3.7783388    3.9639654    55.654774    40.179166 
18448000    275.24342    314.32112    262.92952   -2.5836914    3.7535121    51.391593    40.174857 
18452000    273.33056    311.90646    280.95461   -2.9605332    1.3269701    30.951844    40.186449 
18456000    264.81226    298.60619    276.02653   -1.8180018    2.7942348    22.579669    40.188407 
18460000    272.46919    307.70184    292.91962   -3.3373204    1.3390999    14.782219    40.185612 
18464000    276.04425    315.96016    272.86475   -3.8614128    2.5317049    43.095404    40.174543 
18468000    276.23001    321.23239    290.92807   -2.7136532    1.5749911    30.304318    40.158055 
18472000    270.08016    309.12421    293.71683   -2.7675557    2.2258021    15.407383     40.15474 
18476000     278.0541     315.2702    286.25019   -3.0773291    3.4651534    29.020012    40.156529 
18480000    281.64754    327.35421    289.37585   -3.5954747    1.9390959    37.978361    40.166634 
18484000    276.46965    334.29932    264.67327   -4.8286495     3.424449    69.626052    40.176675 
18488000    277.83965    330.16481    272.71127   -4.0347549    3.1081655    57.453543    40.163878 
18492000    271.30347    321.49497    271.92037   -3.3024035    2.9340189    49.574599    40.159165 
18496000    271.89098    301.45385     281.4542   -2.5025017    2.7923199    19.999648    40.158225 
18500000     274.3208    320.66806    274.29593   -3.4549782    3.1187298    46.372133    40.177322 
18504000    265.29376    315.17226    259.99762   -2.8240514    3.3575244    55.174636    40.199931 
18508000    269.60803    319.40332    252.84704   -2.2599857    4.2952236    66.556281    40.207895 
18512000    270.81464    327.60173    266.24126   -2.9703477    2.3025702     61.36047    40.210484 
18516000    283.07491    330.04072     291.1777   -3.8499579    1.8032242    38.863024    40.212343 
18520000    287.57715    343.38494    294.22895    -4.689321    1.2101244     49.15599     40.20766 
18524000    268.87472    298.13236    268.95601   -1.5297241    3.1338017    29.176349     40.20887 
18528000    270.06968    291.47523    276.13096   -2.1724869    2.3267296    15.344265    40.184216 
18532000    266.98474    322.18917    275.22182   -3.3173656    2.8584359    46.967355    40.175175 
18536000    273.36843    335.01524    275.06703   -3.9882004    2.9391641    59.948215    40.198808 
18540000    279.24932    326.67059    285.51254    -4.065001    2.5911803    41.158044    40.203209 
18544000    277.53704    325.23528     290.5185    -3.802231      2.54847    34.716776    40.192377 
18548000    284.24344    347.57364    267.91519   -6.2557375    3.6706541    79.658455    40.190673 
18552000    269.52973    324.44139    269.70742   -5.2360585    2.9724474    54.733971    40.190502 
18556000    277.35562    339.47902    295.99981   -4.1387184    2.3250242    43.479209    40.197075 
18560000    276.83473    317.77619    294.73947   -2.7603571    1.7380129    23.036723    40.207965 
18564000    273.40868    303.09006    277.01943   -2.4831255    1.7453251    26.070634    40.210339 
18568000     269.9469    308.53178    273.21152   -2.8154544    2.5681331     35.32026    40.199659 
18572000    280.59521    313.84523    285.83987   -3.2554318    2.2925986    28.005361    40.179134 
18576000    276.24492    289.97226     301.3806   -1.8658502    1.3113532   -11.408343    40.172657 
18580000     280.0374    340.40937    282.65404   -4.7903859    2.0526719    57.755329     40.17738 
18584000    274.22368    310.90876    268.85938   -4.3901802    3.6990906    42.049386    40.174233 
18588000    274.48472    311.36503    279.65128   -3.6108219    1.9908835    31.713753    40.170268 
18592000    276.09102    320.40299    284.68978   -3.1708313    3.8213414    35.713202    40.170809 
18596000    280.69232    343.64845    279.95256   -5.0647846    3.7959828    63.695891    40.169895 
18600000    278.15256     328.4367    287.75311   -4.7677573    3.3154405    40.683595    40.166198 
18604000    269.15998     333.4441    258.62817    -4.721473    5.0261896    74.815934    40.185652 
18608000    270.72424    315.72957    271.34064   -3.1072547    4.6634087    44.388928    40.186656 
18612000    266.73813    319.06745    271.36039    -2.516203    5.3864566    47.707059    40.179694 
18616000    268.16499     315.6597     282.5803   -3.2675791    4.0866979    33.079393    40.174723 
18620000    277.73015    311.45596    286.98956   -4.0268892    3.7196228    24.466397    40.153099 
18624000    278.19778     346.1693    266.12109   -4.8835897    4.4386071    80.048206    40.152746 
18628000    277.64009    336.48783     275.1069   -4.8424059    3.7197968    61.380929    40.144637 
18632000     264.7324    316.36018    268.36648   -3.5169716    3.8132019    47.993698    40.152604 
18636000    275.91323    330.59284    274.03085   -3.9208797    4.3789082    56.561991    40.139466 
18640000    269.95652    329.46939    271.63185   -4.6261725    4.5637784    57.837537    40.129726 
18644000    275.96835    317.92026    289.07266   -5.0717066    3.4801584    28.847597     40.12434 
18648000    279.71026    330.64338    271.74725   -4.2632712    3.8320311    58.896126     40.10742 
18652000    276.77021    337.60713    269.05503   -3.9633246    4.1250492    68.552091    40.112431 
18656000    271.30948    317.52123    288.10836   -4.6482993     2.231662    29.412873    40.116503 
18660000    271.96623    320.50902    284.21491    -3.648519     2.665972    36.294108     40.13178 
18664000    278.83674    345.22045    273.05017    -3.700909     4.232857    72.170279    40.135776 
18668000    265.74729    324.48468    262.09344   -3.4714841    4.2725121    62.391242     40.13586 
18672000    274.36763    325.39366    280.97684   -3.3362347    2.2023917    44.416817    40.133511 
18676000    280.62705    344.27703    279.19049   -3.6960302    2.3997758    65.086541    40.140788 
18680000    274.30662    333.24368     273.3469   -4.0388648    3.2752265    59.896787    40.139879 
18684000    280.40735    330.57988    271.68505    -4.529611    2.7216617    58.894833    40.147448 
18688000    277.29622    330.91119    295.52354   -3.5640491    2.3896251    35.387656    40.166225 
18692000    273.18014    317.84754    277.59962   -3.1370102    2.7941042    40.247919    40.168775 
18696000     278.2007    323.07861     300.1255   -3.2807405    2.1114691    22.953103    40.170432 
18700000    270.41111    313.98656    281.36329   -4.0197763    3.6380237    32.623269    40.176744 
18704000    274.46731    343.87391    262.67554   -6.4544041    3.6375016    81.198363    40.154089 
18708000    282.66271     332.6258    288.30441   -3.7802179    2.3729308    44.321383    40.150838 
18712000    271.29084    341.28402    268.03683   -4.8445773    3.4572764    73.247187    40.159832 
18716000    272.65755    327.32246    263.10604   -5.1372265    4.6732648    64.216425    40.159974 
18720000     281.0719    340.61101    285.43627   -5.1258895    2.3297343     55.17474    40.157696 
18724000    284.77121    341.69228    275.52921   -5.8211002     2.949361    66.163067    40.176897 
18728000    280.31944    332.50409    256.14758   -4.5921017    3.4292091    76.356504     40.16579 
18732000    274.44623    316.40014    290.46121   -4.2684078    1.5460571    25.938935    40.166443 
18736000    281.30428    322.04441    304.42213   -4.9799265    2.0295806    17.622286    40.177431 
18740000    267.53655    293.65946    278.48039   -2.7740119    2.8917009     15.17907    40.177765 
18744000    271.89605    311.78308    277.58227   -4.5925111    3.6476017    34.200812    40.182705 
18748000    273.38475     312.1585     280.8953   -4.7585158    3.4256096    31.263201    40.174125 
18752000    282.38159     309.3138    288.83409   -4.3795767    2.2875062    20.479713    40.172764 
18756000    280.52994    339.71187    263.78906   -5.7611641    4.2642331    75.922818    40.172424 
18760000    274.30766    336.23462    256.74502   -5.6474241    4.5463505    79.489601    40.173214 
18764000    276.28383    311.31734     274.0629   -4.1079828    4.4251812    37.254439     40.17579 
18768000     273.5518    345.45648    262.46673   -5.7444338    4.2492091    82.989751    40.188892 
18772000     277.4269    337.14313    273.15115   -3.9161359    3.3149232    63.991983    40.192322 
18776000    271.93953    324.18488    279.87132   -3.9707448    3.2308575    44.313555    40.181526 
18780000    273.14624    306.20711    293.92716    -3.116808    1.8023151    12.279951    40.191454 
18784000    264.04936    293.96109    277.58681   -3.4514874    2.9605819    16.374277     40.18456 
18788000    283.98384    333.57984    289.43263   -4.4953003    3.6792793    44.147203    40.181151 
18792000    273.63888    316.10288    288.24535   -3.0408464    4.1158557    27.857523    40.172891 
18796000    271.60443    302.29059    289.21666   -2.6132338    2.9131644    13.073924    40.176444 
18800000     271.2818    311.27082    288.39497   -3.4998016    2.7901891    22.875847    40.150248 
18804000    275.23395    325.06408    300.63962   -4.2053072    3.1222899    24.424465    40.155636 
18808000    272.20639    307.34923    284.21222   -3.4603909    3.8086073    23.137012    40.150834 
18812000    279.26855    326.77317    269.70184   -5.1636241     3.798729    57.071331    40.148347 
18816000    270.39066    331.70771    279.31565   -4.0475772    3.8071109    52.392062    40.129497 
18820000    263.71808    306.21218     272.8651   -2.6207208    5.5958894     33.34708    40.122752 
18824000     274.3932    324.80084    281.12066   -2.6300223    5.3834676    43.680186     40.13988 
18828000    273.84301    345.30069     269.9243   -4.3106109    5.5296694    75.376387    40.139838 
18832000     272.2861     313.4688    296.25979   -3.2610806     3.892941    17.209019    40.145267 
18836000    264.61589    319.48099     273.3822   -4.3206099     5.515481    46.098794    40.138126 
18840000    282.10421    342.41854    276.08188   -5.2648637    4.6850495    66.336664        40.13 
18844000    261.25018    287.73286    272.48506   -2.0456485    3.6368905    15.247796    40.122095 
18848000    267.35622    295.40503    288.04266   -2.5667031    2.8716098    7.3623663    40.113726 
18852000    277.09272    340.28223    279.01896   -4.0501848    4.5094125    61.263279    40.109968 
18856000    274.03461     315.9051    302.22152   -3.6651878    3.8592202    13.683581    40.113187 
18860000    274.20098    309.59646    284.61956   -3.2929872    3.9137452    24.976899    40.116607 
18864000    273.08125    309.99054     304.1793   -3.2788467    3.5282972    5.8112401    40.118226 
18868000    272.45759    313.97022    289.72696   -3.6215842    3.2317786    24.243258    40.121553 
18872000     275.6659    313.46088    283.10163    -4.168911    3.5503541    30.359251    40.120532 
18876000    282.06055    340.44322    285.81978    -4.660992     3.328725    54.623439    40.108547 
18880000    272.91052    289.64756    300.64296   -2.6699757    2.6456205   -10.995396    40.112568 
18884000    269.59609    334.80757    270.87335   -4.9086793    2.8537926    63.934221     40.10958 
18888000    266.60648    309.71504     278.6709   -3.5604825    3.4357842    31.044137    40.103571 
18892000    272.98033    313.03917    280.95643    -4.031076    3.8202329    32.082741    40.111038 
18896000    279.13359    341.73813    273.56596   -5.3103432    3.8280712    68.172166    40.094029 
18900000     278.1651    327.86274    281.53959    -5.114536    3.9922692    46.323149    40.095972 
18904000    281.18683     333.2513    293.97191    -4.578714    3.2641311    39.279393    40.078715 
18908000    275.01021    326.55139    290.00274   -4.8152224     3.280293    36.548651    40.084084 
18912000    275.16437    319.84422    273.19819   -4.4169993    3.5074485    46.646033    40.091462 
18916000    274.09654    319.32596    257.43318   -4.6802534     4.465787     61.89278    40.096604 
18920000    282.66546    345.31754    272.94654   -5.5784743    3.9745719    72.370996    40.092785 
18924000    280.19724    322.11672    273.41693   -4.5366044    3.6085664     48.69979    40.083213 
18928000    280.24823    309.37537    313.64223   -4.3656887    1.6920493   -4.2668617    40.095379 
18932000    273.81784    323.77983    269.18204   -4.3658234    3.1953804    54.597785    40.093276 
18936000    273.84854    301.00123    297.16816   -4.1435878     3.074963    3.8330665    40.099537 
18940000     272.5973    317.33149     283.4546   -4.3994452    3.3018365    33.876884    40.086673 
18944000    272.68478    304.53681    263.00768   -3.3645549     3.908634     41.52913    40.069073 
18948000    284.77596    329.64621    290.32139   -5.0577925    3.2598795    39.324811    40.065363 
18952000    274.65596    313.21637    273.75823   -4.5766046    3.5960836    39.458132    40.060434 
18956000    277.40697    315.60661    285.25442   -4.7627359    3.3084259    30.352192     40.06892 
18960000    274.83895    310.88554    280.80853   -5.2056474    3.0151051    30.077013    40.069579 
18964000    273.02926    319.49152    259.10188   -4.9543438    4.1084135    60.389634    40.082134 
18968000     275.4322    306.28877    284.00863   -3.8347362    2.2346003     22.28014    40.094972 
18972000    271.64549    296.71755    287.24681   -3.5391699     1.897368    9.4707405    40.084636 
18976000    275.07003    309.03484    276.34085   -4.7072248    3.5719703    32.693996    40.070655 
18980000    270.69378    330.67025     260.1936   -5.8422314    3.1327097    70.476655    40.054807 
18984000    280.94629    296.98708    313.79611   -2.8559774   0.62200613   -16.809031    40.055262 
18988000     274.7976    320.14593    286.93569   -3.8936086    2.1693689    33.210235    40.042663 
18992000    275.78549    322.92378    286.70514   -3.6983075    2.4654602    36.218636    40.039751 
18996000    280.64091    331.91291    291.63685   -4.6308903    2.8608532    40.276064    40.039209 
19000000    276.68937    320.38874    274.76873     -4.40534    3.5735884    45.620013    40.050183 
19004000    272.99727    323.37427    277.83798   -3.5212144    2.0960112    45.536285    40.052928 
19008000    274.01712    306.54688    280.47639   -3.2392609    2.3436344    26.070485    40.055138 
19012000    278.49272    326.31445    286.25541   -4.1156457    2.4244383    40.059043     40.04858 
19016000     278.7061    334.31312    282.53483   -4.1178497    1.8236187    51.778286    40.043266 
19020000    279.17871    310.47826    285.08072   -3.8538282    2.3984489    25.397541    40.036586 
19024000    278.65599    330.91712    268.07905   -4.3460134    3.0306967    62.838073    40.034619 
19028000    271.74472    314.92754    279.71697   -4.0552324    2.5975329    35.210568    40.025422 
19032000    276.74903    330.95897    286.80628   -3.1568479    3.3136984    44.152695    40.030975 
19036000    279.54398    320.32235    292.91261   -4.4253262    1.5172184     27.40974    40.040248 
19040000    283.00517    334.23794    297.59497   -2.8938155    2.3668233    36.642969    40.045993 
19044000    273.57502    308.01202    282.17474   -2.3839558    2.0609474    25.837286     40.03504 
19048000    282.28136    338.84437     272.8447   -4.0577296    2.6149939    65.999676    40.048455 
19052000    272.88584    333.71857    275.88497   -4.1154171    3.0129535    57.833603    40.061294 
19056000    270.33392    332.50843    262.02404    -4.216661    2.6791483    70.484389    40.060494 
19060000    277.77503    325.34669    293.58499   -4.8106585    2.0793924    31.761698     40.05475 
19064000    276.67019    324.20622    295.78262    -3.741456      2.50161    28.423604     40.05338 
19068000    267.00497    312.27084    275.45569   -3.4141639    4.1681057    36.815157    40.049177 
19072000    274.92355    311.89092    287.30184   -3.7460237     2.795445    24.589076    40.049576 
19076000    283.86185    323.03622    289.07692    -3.947698     2.912063    33.959306    40.054892 
19080000     271.7093    323.72574    282.88029   -3.6480415    3.9931077    40.845448    40.051107 
19084000    276.38735    320.12681    292.26169   -3.5835806    1.9676076    27.865123    40.036993 
19088000    277.00363    340.22799    270.07539   -6.1259504     3.245028    70.152593    40.035664 
19092000    271.67373    325.00461    278.51272   -5.0136488    2.8268958    46.491884     40.02948 
19096000    278.12528    341.53112    289.00909   -5.4076138    2.3286338    52.522028    40.029418 
19100000    275.25756    333.25074    274.68912   -4.8378103     2.419973    58.561616    40.032781 
19104000    273.75374    313.90045    296.50943   -4.5185403    3.2410736    17.391019    40.037395 
19108000     272.4045    352.27412     275.7032   -5.7305784    3.5357864    76.570926    40.056443 
19112000    268.50485    307.66331    281.33025   -4.1334059    3.0878278    26.333063    40.059218 
19116000    283.82346    336.53436    287.50993   -4.5638855    2.5668134    49.024423    40.055058 
19120000    279.37504    346.89745     274.1637   -5.3762835    2.8285653    72.733751      40.0725 
19124000    280.26451     308.4197    302.60215   -4.3500801    3.3559999    5.8175503    40.073368 
19128000    277.86362     314.6488    305.68393    -4.214207    1.8491631    8.9648667    40.084378 
19132000    269.27946     309.4347    285.46961   -2.7855815    3.2645817    23.965089    40.092296 
19136000    271.23871    317.64342    287.45841   -3.1330534    2.7705432    30.185012    40.102354 
19140000     267.9361    314.27849    280.12992   -3.3484213    3.9888256    34.148572    40.103285 
19144000    272.18641    318.86493    282.56396   -3.6904275    4.3593847    36.300963    40.098452 
19148000    272.35974    317.77188    286.55437   -3.2971293    3.6301434    31.217513    40.093098 
19152000    271.09443    327.83125    251.17009   -3.6729516    5.9127367    76.661157    40.109712 
19156000    267.26481    322.38094    259.07401   -4.0634151    5.5044278     63.30693    40.114833 
19160000    268.48359    338.48335    278.07465   -4.4547048    4.8777442    60.408701    40.115878 
19164000    274.42391    319.13961    273.84721   -3.0658008    4.6106599      45.2924    40.117349 
19168000    272.33209    309.13451    296.31432   -3.8107316    3.9201269    12.820192    40.108605 
19172000    272.98089    328.64893    279.94971   -3.6821171    4.7624064    48.699225    40.118029 
19176000     269.7743    316.35749    279.35363   -3.1527115    4.0025663    37.003858    40.125305 
19180000    275.97293    340.19931    283.52638    -5.338936    3.8970078    56.672928     40.13293 
19184000    268.71542    332.00771     252.9693   -4.4147191     6.081872     79.03841    40.133748 
19188000    274.54601    313.52887    293.80556   -4.1609613    4.1858481    19.723308    40.134625 
19192000    271.70819    304.75915    293.25843   -3.3304631    4.3723557    11.500721    40.143869 
19196000    276.55613     348.4435    262.16863   -5.6247961    4.9231862    86.274876    40.142249 
19200000    274.36267     336.0969    284.65029   -5.0909956    4.1542807    51.446609    40.140725 
19204000    277.94292     340.3498    284.91476    -5.671268    5.6511885    55.435038    40.142141 
19208000    278.49149    317.28215    302.19401   -5.2648056    4.3786386    15.088135    40.129866 
19212000    275.46374    338.02643    288.86073   -5.8897946    4.7278162    49.165694    40.135346 
19216000    272.12567    304.93185    283.30964   -3.8499917    6.0150895    21.622207    40.139562 
19220000     273.6342    337.98991    278.46451   -5.7535714    5.5290478    59.525406    40.137016 
19224000    274.38038    309.33518    295.46271   -5.0961455    4.1853779    13.872468    40.143391 
19228000     277.5828     314.1431    286.87115   -4.4507772    4.1552274    27.271955    40.137811 
19232000    278.75011    328.05248    285.17361   -5.2003631     3.876978    42.878869    40.152358 
19236000    274.55746    305.96759    290.72861   -3.1122917    3.8118831    15.238974     40.15026 
19240000     274.4521    326.10773    294.63399    -4.739457    3.2444969    31.473744    40.156536 
19244000    279.33077    308.04193    299.87728    -3.293004    3.4210266    8.1646539    40.160222 
19248000    267.79911    316.99445    254.51929   -4.2221503    5.7107416    62.475162    40.161978 
19252000    269.57893    312.02872    272.22768   -4.4615875    3.8667392    39.801045    40.157559 
19256000    271.36299    328.96433    263.20982   -6.1966936    3.6626997    65.754514    40.153286 
19260000    281.18882     307.7529    326.80392   -4.2120938     2.557906   -19.051012    40.147061 
19264000    266.59819    316.85638    258.31326   -4.1088258    4.7484738    58.543122    40.150564 
19268000    274.76032    327.79539    270.13161   -5.5957544    4.3534621    57.663787    40.170045 
19272000    285.50797    336.88207    285.08077   -5.7387433    3.6535489    51.801303    40.182015 
19276000    279.24624    323.83804     286.9211   -4.9825096    3.5069209    36.916937    40.178923 
19280000    285.43347     333.8396    298.32267     -3.84191    2.6333777    35.516931    40.187204 
19284000    265.30085    310.61253    269.69493    -2.551207    4.1000118    40.917594    40.193772 
19288000    278.87086    342.02313    286.18006   -4.2830695    3.2308444     55.84307    40.198653 
19292000    264.54199     301.8057    263.57185   -2.3618247    5.8741411    38.233849     40.19784 
19296000    272.53319    320.59314    272.92189   -1.9659667      4.85641    47.671248     40.18828 
19300000    271.18407    322.27826    273.97493   -3.0377654    3.8305085    48.303335    40.198712 
19304000    267.44144    293.81257    275.62101   -1.6126137    4.1727716    18.191557    40.188944 
19308000    271.46836    326.26243    289.15047   -4.6622697    3.7804592    37.111963    40.178352 
19312000    267.16399    308.89368    288.63217   -3.7356996    5.2216229    20.261508    40.170077 
19316000    265.14478    319.46387    274.05224   -3.8619342     5.459396    45.411625    40.173806 
19320000    270.62615    310.68022    293.84668   -3.3450806    4.0450322    16.833546    40.176023 
19324000    271.89858    309.23635    304.21967   -2.0020605    3.2981298    5.0166818    40.171576 
19328000    263.85129     317.6104    262.45339   -2.6401309    5.4056549    55.157016    40.166575 
19332000    280.77086    334.71966    290.49858   -4.1581644    3.8203629    44.221076    40.162342 
19336000    270.38476    323.45562    266.19537   -3.7293282    4.5582975    57.260257    40.149331 
19340000    274.18585    308.21657    292.35255   -2.2850044    4.0798774    15.864026    40.154584 
19344000    270.94265    296.29247    297.89014    -3.198537    3.8646946   -1.5976671    40.146656 
19348000    269.21855    302.56459    282.65611   -2.8222064    3.8901086    19.908479    40.147973 
19352000    277.42056    334.46369    306.72915    -5.312707    3.8910948    27.734547     40.15324 
19356000    282.65503    324.31858    295.00112   -4.8235887    4.4294827    29.317452    40.144813 
19360000    265.67058    325.00512    262.38823   -3.6232884    4.8256573    62.616883    40.153868 
19364000     271.5018     320.2308    265.83711   -4.1050327    5.8802774    54.393694    40.155203 
19368000    271.77198    326.34152    275.04897   -4.8105989    5.6305315    51.292546    40.145011 
19372000    273.14678    323.07835    271.70392   -3.9641416    3.1604767    51.374431    40.139563 
19376000    277.18518    328.10222    293.97672   -4.2203419    3.7196166    34.125502    40.136988 
19380000    275.59933    327.41119    286.66464   -4.4968896    3.8267357    40.746545    40.137055 
19384000    280.24269    322.20575    293.31858   -5.3338329     4.080587    28.887164    40.144135 
19388000    279.15492    358.20292    262.87458    -6.227729    5.4590026    95.328341    40.141181 
19392000    263.55609    304.79016    275.96251   -3.3214278    5.3166787    28.827652    40.140676 
19396000    269.36279    335.28451    272.76472   -4.7539133    5.0945392    62.519794    40.144973 
19400000    271.11537    358.75237    260.52715   -5.6277203    6.0312321    98.225216     40.14945 
19404000    281.55942    335.38253     290.8679   -5.9672739     4.444277    44.514628    40.150873 
19408000    267.61278    333.49632    258.35873   -5.0040252    5.5837201    75.137587    40.146224 
19412000    282.51112    333.48178    308.49129   -4.4995439    3.6311282    24.990487    40.140004 
19416000    276.47608    325.01109    288.75898   -5.1154748    5.1439116    36.252104    40.133939 
19420000    282.36412    329.38703    286.60718   -3.6139634    4.4001962    42.779858    40.136258 
19424000    281.70335    342.68306    307.97024   -3.8389783    4.4864355    34.712816    40.155089 
19428000    273.04308    325.23253     276.6792   -4.6605572    6.4998285    48.553335    40.154685 
19432000    272.48374    346.93049    271.81397   -5.2367654    4.8693945     75.11652    40.162414 
19436000     272.2206    312.04845    278.30137   -4.4396836    5.1918105    33.747085    40.169412 
19440000    273.70561    313.93062    295.91609   -4.3088397    3.2522085    18.014524    40.169996 
19444000     266.1519    316.54124    260.80813   -4.2959617    5.3634331    55.733111    40.167181 
19448000    273.29146    349.84079    263.34135   -5.3604464    6.0974606    86.499441    40.182267 
19452000    272.41656    314.61345    283.77321   -5.4197217    4.1184749    30.840238    40.177843 
19456000    267.28667    291.28115    277.09614   -4.3808384     4.691568    14.185013    40.163265 
19460000    271.34304    323.34382    278.24367    -5.353483      5.15731    45.100148    40.156596 
19464000    268.03264    325.62629    261.36359    -5.295814    6.0338992    64.262695    40.149262 
19468000    271.74973    317.22763    279.63471   -4.0039909    4.0336579    37.592922    40.155424 
19472000    272.74898    325.55189     275.1808   -4.2875631    4.5962371    50.371095    40.152915 
19476000    279.22991    347.18682    265.46421    -6.967432    5.1685665    81.722611    40.149959 
19480000    268.02518    309.86604     280.6949   -3.9478012    3.6529823     29.17114    40.154843 
19484000    268.80321     315.3588    278.92596   -5.6143629    4.6855631    36.432837    40.161784 
19488000     284.0532    345.81881    283.32403   -5.8231272    3.8500432    62.494783    40.164743 
19492000    265.59362    312.90293    281.44309   -5.3228946    4.2836534    31.459834    40.168889 
19496000    273.88493    307.10095    282.14444   -4.6232778    4.9845278    24.956513    40.164159 
19500000    272.03329    310.37194    286.63152   -5.3166299    5.0994493    23.740424    40.159265 
19504000    272.37289    339.10363    254.88277   -6.6944963    6.4224328     84.22086    40.169132 
19508000    274.58191    330.00553    282.02289   -5.8963564    4.9343713     47.98264    40.165366 
19512000    278.54895    332.89061     286.2124   -7.5438827    4.4117657    46.678207    40.162067 
19516000    278.75884    317.49638    277.87876   -5.8935886    4.8634199    39.617622    40.174352 
19520000    272.97365    324.98946    277.40309   -6.0447617    4.6027015    47.586366    40.178758 
19524000    280.06677    311.03735    306.01779    -5.768931    4.1893103    5.0195547    40.174877 
19528000    268.00567    300.35457    271.60614    -4.491668     5.880199     28.74843    40.171638 
19532000    277.12398    315.41229     296.2469    -4.839311    4.8693463     19.16539    40.174536 
19536000    268.62331    315.31043    261.99829   -5.7011569    6.2544705    53.312138    40.168963 
19540000    275.17418     333.1245    284.56013   -6.6715456    5.6786049    48.564367    40.181876 
19544000    273.52275    307.90427    284.67816   -5.0556728    6.2483959    23.226108    40.166661 
19548000    275.37991     321.3834    284.50333   -6.5886952    5.1604078    36.880076    40.162547 
19552000    266.93552    288.04202    271.33092    -3.999316    4.9545105    16.711095    40.167492 
19556000    265.19754    288.86877    260.32097   -3.5647223    5.1183581    28.547797    40.166521 
19560000    268.39825    318.51408    276.18627   -5.8780177    4.1965407    42.327806    40.170785 
19564000    266.40836    327.54687     260.1909   -4.9334439    5.5025849    67.355971    40.178764 
19568000    271.49577    322.99622      272.583   -5.7621437    6.5547407    50.413226    40.183713 
19572000     266.3992    318.93538    257.73071   -4.3124297    7.0699029    61.204674    40.180896 
19576000     270.2574    319.72946    277.67321   -4.1622119    6.9475694    42.056252    40.182981 
19580000    266.67463    309.05126    283.09513   -4.2027598      6.29124    25.956132    40.193871 
19584000    259.19183    310.42107    271.86467    -4.558924    6.9738034    38.556408    40.188302 
19588000     272.4011     351.5107    274.90831   -5.5783398    5.0812205    76.602385     40.19659 
19592000    273.03058    328.16868    285.25546   -4.2133999    5.0857858    42.913225    40.193286 
19596000    258.99033    292.97125    273.46591   -3.1239852     6.278659    19.505335    40.191248 
19600000    271.87085    330.77669    281.79431   -5.4440751    5.9225934    48.982375     40.19099 
19604000    268.34185    309.86365    295.11811   -2.4839907    4.3951854    14.745536    40.186474 
19608000    261.66429    288.55784    286.09019   -2.6818098    4.7253945    2.4676428     40.18585 
19612000    267.66469    317.72821    295.21873   -2.9825723    5.1117498    22.509476    40.191229 
19616000    268.37733    326.63664    262.15253   -4.5177675    6.5995276    64.484106      40.1905 
19620000     273.1162    316.98661    301.95759   -4.1759892    3.7221718    15.029022    40.194604 
19624000     267.3112    332.50892    282.29838   -4.4767016    5.7273112    50.210544    40.202794 
19628000     265.3939    310.36644    268.54049   -4.8957462    5.1541344    41.825951    40.202398 
19632000    270.10069    320.83987    284.51031   -4.5716015    6.1655694    36.329554    40.186174 
19636000    261.59733    302.29018    264.89391   -4.0914711    7.4513314    37.396267    40.198429 
19640000    266.87839    310.84149    275.42675   -4.7192757    6.7864657    35.414738    40.191234 
19644000    272.58316    321.86206    262.12821   -5.6185838    7.3419491    59.733851    40.195193 
19648000    268.39122    307.95632    278.39955    -5.067137    6.2440873    29.556762    40.190679 
19652000    268.77811    325.15894    269.81382   -6.1439161    7.0993827    55.345124    40.182121 
19656000    272.08005    321.99023    288.62117   -6.7239326    6.4808676    33.369061    40.182749 
19660000    272.12353     335.5554     271.7082   -6.8398341    7.7676223    63.847195    40.185951 
19664000    267.08667    333.13074    274.78153   -6.5220657    6.7408489    58.349202    40.196226 
19668000    272.91179    330.83248    286.08617   -6.2095977    6.2936997     44.74631    40.196409 
19672000    267.74224    307.99432    290.61659   -4.7496029    6.1531372    17.377726    40.195799 
19676000     274.0176    348.42189    276.18829   -7.7053734     6.281425    72.233595     40.19914 
19680000    263.91086    322.69112    262.56499   -4.8234406    6.9777461    60.126131    40.199056 
19684000    268.19406    322.65519    273.53118   -5.5007179    6.2239119    49.124018    40.199814 
19688000    265.85855    289.19235     300.3677   -4.6818546    5.4731911   -11.175345    40.199251 
19692000    270.05264    313.98442    280.75682    -5.012187    5.8175019    33.227607    40.200331 
19696000    271.84912    314.14959    285.10155   -5.1030239    6.0684795    29.048038    40.199765 
19700000     275.3101    343.85117    279.36488   -6.1468816    6.7359265     64.48629    40.202366 
19704000    265.35354    315.50481    273.32436   -5.5119757    6.5664776    42.180448     40.19534 
19708000    272.80798    330.72168     285.1036   -6.4905357    6.0214708    45.618075    40.198546 
19712000     265.6004    318.43621    281.62706   -5.4999905    5.9512457    36.809152    40.199937 
19716000    285.92616    356.06787    300.09809   -6.9758329    5.4512554    55.969781    40.212111 
19720000    266.38103    316.06684    270.01992   -6.3158257    7.0470269    46.046918    40.218516 
19724000    271.79903    334.85192    275.54182   -6.9432377    7.0094105    59.310095    40.223154 
19728000    285.96149      333.523     311.4208   -5.7770208     6.322425    22.102196    40.222935 
19732000     282.6387     330.5377    297.98665   -6.4761683    6.3919922    32.551045    40.217018 
19736000    262.21858    291.37435    260.97055   -4.5240328    7.2726625    30.403808    40.215919 
19740000    261.40902    305.74416    278.96908   -5.1713906    6.6550281    26.775082    40.211006 
19744000    276.90135    315.08858    294.73309   -4.8372964    7.1209995    20.355491    40.200358 
19748000    266.09736    337.38111    260.35797   -6.1944062    7.0500865    77.023145    40.200883 
19752000    264.45029    311.15688    284.47584   -5.6473578    5.6792655    26.681048    40.201894 
19756000    264.45182    300.93304    256.66901   -3.9256025    6.8195275    44.264035    40.203164 
19760000    275.01917    324.61001    296.11309   -6.8059848    4.7650558    28.496917    40.198463 
19764000    277.24863    334.10095    294.19643   -7.0042722    4.6380015    39.904513    40.191287 
19768000    269.72946    310.89951    291.18412   -5.4403586    5.7903258    19.715385    40.188795 
19772000     278.9052    319.26919    305.54129    -5.386858    6.9066954    13.727895    40.192326 
19776000    267.64129    304.64016    276.87295   -6.5278142    7.1659431    27.767209    40.197145 
19780000    276.82792    337.69263    274.45828   -6.5600598    6.7527048    63.234348    40.201577 
19784000    269.01122     309.4652     282.7101   -5.3431908     6.524736      26.7551    40.195188 
19788000    276.25162    319.16381    283.64707   -6.4747901    6.6243546     35.51674    40.192939 
19792000    279.41712    348.26085    276.32795   -8.0837783    6.9778638    71.932904    40.197362 
19796000    279.32279    318.72058    293.49238   -5.7801008    5.1478347    25.228198     40.19084 
19800000     279.1614    353.24606    281.36478   -6.6827635    5.7598044    71.881277     40.19249 
19804000    277.06999    328.05293    296.44318   -5.4005771     4.379362     31.60975    40.191138 
19808000    271.07933    347.37246    277.71418   -6.4663062    6.3202923    69.658278    40.193674 
19812000    268.00858    318.86973    271.01546   -5.3973369    7.4843884    47.854263    40.192071 
19816000    277.47676    339.11668    285.61329   -6.3246223    6.5859753    53.503388    40.191073 
19820000    280.13763    339.47773    298.36652   -6.0952548    4.8147757    41.111214    40.187264 
19824000    271.69445    318.80262     274.0247   -4.0228924    5.9648791    44.777917    40.191792 
[...]
32904000    277.84223     334.1965    259.12406   -37.913954    34.624714     75.07244    40.150238 
32908000    286.40554    320.68636    283.13584   -36.537765    33.677931    37.550518    40.150709 
32912000    282.63804    290.61925    295.20467   -37.274194    32.973375   -4.5854193     40.15006 
32916000    281.90113    334.66475    259.79099   -38.121414    34.394184    74.873759     40.15036 
32920000    278.99127    317.57762    265.85921    -37.17827    34.294974     51.71841    40.149511 
32924000    279.19349    320.97523    289.78538   -37.630665    33.312444     31.18985     40.14976 
32928000    290.69529    333.90462    285.34289   -37.512151    34.133868    48.561729    40.149753 
32932000     274.1393    308.99501    275.43114   -37.441394     34.82592    33.563871    40.149606 
32936000     282.4222    311.28475    262.63114   -37.495099    34.782325    48.653609    40.149979 
32940000    287.77509    325.34468    295.78992   -37.579123    33.382897    29.554754    40.149609 
32944000    294.48626    344.57361     301.7559   -38.429447    33.788841    42.817712     40.15026 
32948000    277.68556    296.85314    268.00119    -37.51477    34.220751    28.851946    40.149858 
32952000    290.91395    331.23807    300.87212   -38.117628    32.452412    30.365948    40.149728 
32956000    285.39163    322.03559     277.2839   -38.067147    34.387629    44.751692     40.14914 
32960000    277.15797     317.2732    277.42518   -37.824216    34.224772    39.848023     40.14903 
32964000    284.69174    310.75802    286.59346   -36.425531    33.163998     24.16456     40.14899 
32968000    282.53978    326.12861    291.75099   -37.321896    33.853817    34.377617     40.14984 
32972000    286.80799    328.88877    297.53134   -38.159408    32.894307    31.357426    40.148184 
32976000     281.5601    346.29479      263.982    -38.23789    34.442163    82.312792    40.148767 
32980000      278.566    330.20649    268.89904   -37.338413    34.476687    61.307448    40.149649 
32984000    284.29176    332.90953    281.04456   -37.855001    33.702543    51.864975    40.149174 
32988000    274.81645    335.16938     263.8657   -37.966439    34.928532    71.303679    40.149162 
32992000    282.29203    323.87002    267.12868   -37.665706    34.194172    56.741339    40.149913 
32996000    277.20237     321.8751    268.45029   -37.519851    34.415436    53.424818    40.149718 
33000000    279.25985    307.16429    279.40597   -36.350657    34.405698    27.758318    40.150645 
33004000      284.003    310.83577    279.88985   -37.019737    33.253496    30.945919    40.150321 
33008000    292.59891    336.21721    281.68287   -38.718115    33.981419    54.534341     40.15171 
33012000    273.71705    336.13122    268.00544   -38.391472    34.541564    68.125782     40.15187 
33016000    282.11769    309.40372    284.71484   -36.386865    33.944055     24.68888    40.152928 
33020000    273.61089    330.83734    273.53994   -37.974566    34.530886    57.297398     40.15286 
33024000    284.48541    334.55064    284.79317    -37.86526    33.039095    49.757475    40.154943 
33028000    288.22243    336.55953    284.92884   -38.368363     32.75299    51.630688    40.155761 
33032000    291.08614    329.20726    290.40983   -37.316751    32.323909    38.797432    40.155285 
33036000    281.99922    324.11458     284.2055   -38.596418    32.969197    39.909077     40.15575 
33040000    293.95846    336.28425    291.27075   -38.164442    32.731906    45.013491    40.156213 
33044000    278.62101    329.97928    267.68055   -38.242899    33.148002    62.298732    40.154211 
33048000    279.19269    320.50599    279.20556   -38.008634    33.688049    41.300433    40.153929 
33052000    272.19277    314.13452    278.54816   -37.113884    33.913712    35.586359    40.153447 
33056000    288.35348    333.57766    301.76271   -37.590083    31.750656    31.814947     40.15272 
33060000    284.69964    313.30353    290.33389   -36.880397    33.132514    22.969645    40.152004 
33064000     277.1876    316.74609    269.09654   -36.641468    33.133755     47.64955    40.152777 
33068000      287.599    327.62797    297.84674   -37.333605    33.109356    29.781235    40.152088 
33072000    280.46648     319.8527    287.83013   -36.355187    33.558965    32.022569    40.152185 
33076000    285.97683    353.90947    291.98484   -37.263273    33.390519    61.924628    40.151983 
33080000    268.54834    314.22141    270.98339   -35.525598    34.707144    43.238021    40.152076 
33084000    278.79676    327.25124     268.2884   -35.579461    35.535772    58.962843    40.152647 
33088000    277.56976    313.09579    269.98704   -35.495053    34.747744    43.108743    40.152905 
33092000    276.41766    323.40658    278.61765    -36.29138    35.038388    44.788933    40.153707 
33096000    273.27573    319.65551    260.42982   -36.331972    35.104085    59.225696    40.152626 
33100000    277.60263    328.31719    280.78809   -36.212352    35.161997    47.529094    40.152531 
33104000    277.52794    310.90306    284.65896   -34.727217    33.505876    26.244096    40.153456 
33108000    284.85884    301.29146    317.08488   -34.723269    31.963446   -15.793421    40.151939 
33112000    280.63885    334.26574    281.42412   -37.022623    34.008147    52.841623    40.151616 
33116000    277.53765     320.1316    271.99678   -37.146264    33.343513     48.13482    40.152421 
33120000    278.97634    314.12675    286.11932   -37.235351     33.51928    28.007427     40.15231 
33124000    281.03143    315.24891    283.51964   -37.695643     33.89318    31.729266    40.150959 
33128000    287.55121    352.41445    279.77441   -38.806833    32.660427    72.640044    40.149747 
33132000    282.32016     333.7488    276.04459   -37.614344    33.511273    57.704208    40.150116 
33136000    282.44479    304.89973     298.3845   -36.207429    32.402755    6.5152263    40.149625 
33140000    281.69186    345.10204    273.57948   -38.324822     34.37407     71.52256    40.149695 
33144000    283.00036    325.44991    284.24974   -37.634467    33.881993    41.200169     40.14932 
33148000    289.36557    338.92062    305.29853   -36.772521    31.903671    33.622085    40.150608 
33152000    280.34507    331.83311     260.6131   -36.646773    34.210609    71.220014    40.150395 
33156000    283.89647    324.34431    288.63004   -35.847705    32.901886    35.714265    40.150903 
33160000     275.5452    301.13144    294.40872   -36.222001    35.003683    6.7227159    40.150414 
33164000    276.43528    345.71692    281.77607   -37.304735    33.851461    63.940842    40.150766 
33168000    271.18012     297.9023    272.79056   -35.819078    34.755679    25.111735    40.150873 
33172000    271.88663    301.99833    276.94159   -36.456175    35.311509    25.056739    40.150325 
33176000    277.64174     305.2705    288.82296   -34.930291    34.487682    16.447538    40.150138 
33180000    279.73454    302.60038    287.46883   -34.581311    33.641299    15.131547    40.149052 
33184000    284.30337    331.28042    280.10743   -36.133445    33.906825    51.172996    40.149115 
33188000    279.63928    328.31881    278.00589   -35.732172    33.837485    50.312921    40.149606 
33192000    287.27986    337.16333    298.27022    -36.74663    31.924648    38.893114    40.149071 
33196000    284.83696    332.06773    269.13505   -36.630172    33.698616     62.93268    40.149959 
33200000    280.66993    333.39311    270.19528   -36.865842    34.670421    63.197829    40.149213 
33204000    273.53035    301.57938    282.61037   -35.266209     34.15588    18.969012    40.148667 
33208000    279.61412    301.72981    289.79135   -34.607218    33.892811    11.938461    40.148922 
33212000     278.0968    311.40083    281.80807   -36.485036     33.56524    29.592753    40.148519 
33216000    285.97817    342.48866    279.18476    -37.89395    33.825224    63.303906    40.148126 
33220000    283.05688    332.22826     266.6836   -36.273952    33.029041    65.544661    40.148318 
33224000    279.51183    312.71879    296.40346   -36.193211    32.930129     16.31533    40.148568 
33228000    277.75377    307.87616    291.06547   -34.699793    33.445366    16.810689    40.149133 
33232000    276.40063    340.08467    261.68277   -36.372443    35.617027    78.401898    40.149332 
33236000    279.03526    322.76436    264.18418   -34.646963    35.033882    58.580177    40.148848 
33240000    279.65682    303.97047    293.93128   -34.680667    33.926916    10.039186    40.149013 
33244000    282.42551    342.18499    291.49973   -36.150324    34.922932    50.685256    40.149188 
33248000    283.97583    353.35274    283.26742   -36.295733    34.903576    70.085318    40.148623 
33252000    281.74747    340.53788    270.55741   -37.000821    33.456828    69.980465    40.149381 
33256000    271.90048    314.53123    265.12389   -35.820884    35.229215    49.407338    40.148559 
33260000    277.99192    308.20424    287.97809   -35.233108    34.060138    20.226151    40.148837 
33264000    276.29314    349.00957    273.12457   -36.684684     34.44276    75.885002    40.148583 
33268000    271.63197    325.97986    284.73207   -36.043821    34.342538     41.24779     40.14778 
33272000    287.99161    359.08555    301.61451   -37.183544    33.763581     57.47104    40.148501 
33276000    274.09843    342.80417    261.67219   -35.160311    35.836969    81.131985     40.14814 
33280000    271.35536    317.25192    281.16656   -35.167015    33.382727    36.085367    40.149068 
33284000    280.29025    324.80085    292.29127   -35.573999    33.555612    32.509577    40.148143 
33288000    270.90386    322.82632    280.56812   -34.591414    34.362094    42.258198    40.147519 
33292000    273.44893    329.15086    283.71764   -34.295635    35.463249    45.433217    40.148002 
33296000    266.53221     312.2422    269.70045   -33.688715    35.338239    42.541749    40.147688 
33300000    269.16785    316.64651    267.91713   -34.510465    35.981572    48.729376    40.147021 
33304000    275.18361    308.57076    295.51854   -34.659545    33.522079    13.052218    40.147161 
33308000    273.73293     336.1888    269.23049   -35.402255    34.363952    66.958306    40.147478 
33312000    276.42495    346.73812     266.6048   -36.434016    34.896147    80.133322    40.147203 
33316000    272.83686    330.43431    264.92968   -35.448294     35.00207    65.504625    40.147922 
33320000    277.30677    331.64773    297.87816    -34.44458     34.15165    33.769572    40.146919 
33324000    282.92834    330.46457    316.13948   -35.055159    32.575627    14.325087     40.14586 
33328000    273.24128    323.19376    306.49048    -33.74013    33.524629    16.703285    40.144816 
33332000    261.07903    320.09402    283.97121   -33.485043    34.882449    36.122805    40.144315 
33336000    274.36151    334.70014    271.47474    -35.51998    34.719701    63.225396    40.144189 
33340000     262.1682    305.74995    264.17141   -34.052386    35.187973    41.578545    40.144403 
33344000    273.61665    319.68395     279.9331   -34.564829     34.95031    39.750847    40.145404 
33348000    273.34319     319.6835    285.56593   -34.251459    35.509851    34.117572    40.144767 
33352000    275.18578     328.7098    301.11638   -35.026926    35.137594    27.593415    40.144171 
33356000    269.70041     323.0979    278.81333   -34.653013    34.543612    44.284568    40.143253 
33360000    262.07354    310.73841     281.1554   -33.317481    35.179327    29.583007    40.143517 
33364000    269.09045    345.21847    272.69383   -34.350468    36.728095    72.524643    40.143476 
33368000    260.92278    295.57307    272.85498   -31.938202    36.951224    22.718097    40.143988 
33372000    266.62431    326.37633    275.09468   -35.240979    36.009858    51.281654    40.143279 
33376000    271.92968    328.13418    270.40769   -34.953382    36.119766    57.726497    40.142203 
33380000    262.25017    303.64666    255.53875   -34.137392    36.135963    48.107906    40.142832 
33384000    266.79234    325.30579    277.63124   -35.183909    34.520016    47.674547    40.142015 
33388000    271.22908    310.37871    289.76548   -35.630016    35.382486    20.613223    40.142383 
33392000    260.41937    314.38893    268.19789   -34.325351    36.266427    46.191038    40.142902 
33396000    270.33716    340.41964    271.25587   -34.091545    35.982216    69.163771    40.142142 
33400000    273.66713    326.64529    292.30852   -35.088563    36.373145    34.336763    40.142136 
33404000    277.05782    326.27321    282.10131   -35.382475    36.629812    44.171905    40.143717 
33408000    274.75018    323.81931    300.10397   -33.955329    34.869675    23.715341    40.144623 
33412000    273.58222    333.39655    274.72124    -33.90509    36.502608    58.675318     40.14564 
33416000    265.22369    320.39301    276.51896   -33.712437    36.334945    43.874047    40.145746 
33420000    279.74948    361.12229    282.03294   -36.238232    36.860766    79.089352    40.146358 
33424000     265.5796    328.43756    281.50648   -34.312289    37.497047    46.931084    40.146789 
33428000    271.68778     320.3896    281.09452    -34.79551    36.669113    39.295075    40.147306 
33432000    263.45425    318.84077    263.82635   -34.839069    37.593132    55.014422    40.148136 
33436000    262.49142    302.27013     271.9129    -33.41772    36.621285    30.357233    40.148365 
33440000    265.75116    325.95737    274.99942   -35.415687    37.108929    50.957953    40.147989 
33444000    259.50636    304.30787    268.30689     -34.0876     37.43642    36.000977    40.145914 
33448000    265.45286    323.58258    260.63423    -34.53096    37.321526    62.948346    40.146454 
33452000    267.15011    306.56735    281.20061   -34.379758    36.673287    25.366739    40.146286 
33456000    271.68776    333.47887    288.06007   -35.247659    36.197057    45.418797    40.145046 
33460000    265.13065    329.26497    281.66806   -36.058837    36.304638    47.596911    40.144446 
33464000    273.50619    322.60091    300.36825   -36.501568    36.550695    22.232663    40.146429 
33468000    272.18396    324.18846    285.50726   -37.138614    35.884238    38.681196    40.146252 
33472000    266.77238    305.64493     268.0337   -35.817849    35.991133    37.611237    40.145976 
33476000    276.57629    330.20865    284.25994    -36.71929    35.744494    45.948713    40.145392 
33480000    261.90288    328.51316    261.82705   -36.601825    36.753426    66.686109    40.144839 
33484000    274.17113     311.3536    293.04615   -35.538457    34.398636    18.307447    40.144983 
33488000    271.39825    329.13288    261.15338   -35.410484    35.937076      67.9795    40.145178 
33492000    272.21282     326.7746    258.46003   -36.800149     35.87914    68.314574    40.146389 
33496000    280.66806     318.5595    306.02319    -37.10053      34.9331    12.536316    40.147461 
33500000    263.89209    293.21484    291.16391   -35.225608     35.74146    2.0509303    40.146122 
33504000     273.2033    320.12552    282.54663   -35.969324    36.189225     37.57889     40.14632 
33508000    273.98848    321.13434    287.06082   -34.755618    35.010113    34.073517    40.144819 
33512000     274.7659    305.28374    305.56794     -34.0827    33.398346  -0.28420309    40.142576 
33516000    267.50645     328.4265     266.5554   -33.866827     35.89316    61.871098    40.142315 
33520000    279.25057    338.18545    286.69054   -34.557471    35.251984    51.494913    40.143132 
33524000    271.64148    314.32446    300.76205   -35.021318     34.55957    13.562408    40.142885 
33528000    276.51143    324.66776    279.88145   -35.413294    34.444876    44.786312    40.143276 
33532000    274.15752    308.12787    282.77545   -34.920599    34.655103    25.352429    40.143782 
33536000    278.30231    341.47148    295.40759   -37.015144    34.016052    46.063895    40.142956 
33540000    270.01327    316.78289    273.43909   -35.595546    36.391878    43.343794    40.144455 
33544000    271.16873    317.35223    271.11891   -36.432539    35.850223    46.233325    40.144624 
33548000    261.58838    294.26822    271.52076   -35.156685    36.414776     22.74746    40.144321 
33552000     266.3378    303.76205    273.08304   -35.529517    36.356807    30.679009    40.142977 
33556000    270.76461    327.68661    272.13689   -36.994407    36.080364    55.549721    40.142175 
33560000    274.21733    312.75492    294.20229   -36.857578    35.370379    18.552622    40.140294 
33564000    271.55673     320.9079    270.82568   -36.276761    36.789309     50.08222    40.140404 
33568000    278.46879    344.41591    284.77412   -37.980533    35.962226    59.641786    40.141575 
33572000    265.16462    334.56129    249.84908    -37.22268    37.366617    84.712203    40.142466 
33576000     273.6644    294.62009    300.79096   -36.348792    35.047378   -6.1708685    40.142653 
33580000    275.66709    338.16739    284.19105   -37.610562    35.176469    53.976338    40.143141 
33584000    262.78599    287.04303    273.13933   -35.549774    36.075338    13.903695     40.14265 
33588000    271.01785    305.49486    293.77139   -36.812668    35.636527    11.723474    40.142688 
33592000    274.54582    312.13969    299.65673   -36.767343    34.168754    12.482961    40.142674 
33596000    275.32025    327.20886    282.23679   -36.772505    37.034172    44.972064     40.14229 
33600000    280.92454    330.18087    281.44676   -36.788188    36.315364    48.734105    40.141221 
33601000    271.12994     315.1623     287.8982   -36.661671    35.919711    27.264104    40.141221 
Loop time of 21241.9 on 4 procs for 16000000 steps with 1498 atoms

Performance: 16.270 ns/day, 1.475 hours/ns, 753.227 timesteps/s
99.6% CPU use with 4 MPI tasks x no OpenMP threads

MPI task timing breakdown:
Section |  min time  |  avg time  |  max time  |%varavg| %total
---------------------------------------------------------------
Pair    | 10612      | 14660      | 18865      |3285.2 | 69.01
Bond    | 65.276     | 102.19     | 137.38     | 344.2 |  0.48
Neigh   | 116.98     | 117.01     | 117.04     |   0.2 |  0.55
Comm    | 261.82     | 4164.5     | 8208.7     |6035.6 | 19.61
Output  | 7.6152     | 7.6376     | 7.704      |   1.4 |  0.04
Modify  | 1123.8     | 1698.3     | 2302.7     |1029.6 |  8.00
Other   |            | 492.3      |            |       |  2.32

Nlocal:    374.5 ave 714 max 35 min
Histogram: 2 0 0 0 0 0 0 0 0 2
Nghost:    2378.25 ave 4269 max 496 min
Histogram: 2 0 0 0 0 0 0 0 0 2
Neighs:    13096.8 ave 25888 max 311 min
Histogram: 2 0 0 0 0 0 0 0 0 2

Total # of neighbors = 52387
Ave neighs/atom = 34.9713
Ave special neighs/atom = 0.518024
Neighbor list builds = 28485
Dangerous builds = 0

write_restart FINALCONFIG
WARNING: Using a manybody potential with bonds/angles/dihedrals and special_bond exclusions (../pair.cpp:218)
Neighbor list info ...
  update every 1 steps, delay 0 steps, check yes
  max neighbors/atom: 2000, page size: 100000
  master list distance cutoff = 16
  ghost atom cutoff = 16
  binsize = 8, bins = 3 3 23
  4 neighbor lists, perpetual/occasional/extra = 4 0 0
  (1) pair lj/cut, perpetual, skip from (4)
      attributes: half, newton on
      pair build: skip
      stencil: none
      bin: none
  (2) pair morse, perpetual, skip from (4)
      attributes: half, newton on
      pair build: skip
      stencil: none
      bin: none
  (3) pair eam, perpetual, skip from (4)
      attributes: half, newton on
      pair build: skip
      stencil: none
      bin: none
  (4) neighbor class addition, perpetual
      attributes: half, newton on
      pair build: half/bin/newton
      stencil: half/bin/3d/newton
      bin: standard

#and everyone lived happily ever after, THE END
Total wall time: 6:11:43
