LAMMPS (16 Mar 2018)
#lammps script for united atom polymer simulation (full-scale run)

# 1. INITIALIZATION
#allows pair, bond, bending and dihedral interactions
atom_style molecular

  # periodic (video game) boundaries in all cartesian directions
boundary p p s

  # uses real units (instead of units based on pair potential parameters).  List of units used in manual
units metal

###########
# 2. ATOM DEFINITION
##########

   ##
   # Read in data from starting configuration file
   ##

#read_data lammps-AT-config

 #use to restart
read_restart RESTART
  orthogonal box = (0 0 -29.1214) to (20 20 152.979)
  1 by 1 by 4 MPI processor grid
  1498 atoms
  197 bonds
  96 angles
  95 dihedrals
  2 = max # of 1-2 neighbors
  2 = max # of 1-3 neighbors
  4 = max # of 1-4 neighbors
  6 = max # of special neighbors

   ##
   # Specify the nature of the bond interactions
   ##

bond_style harmonic
bond_coeff 1 19.51 1.54
bond_coeff 2 22.45 1.82
bond_coeff 3 10000.0 2.0
special_bonds lj 0.0 0.0 0.0 angle no dihedral no

angle_style harmonic
angle_coeff 1 2.683 114.00
angle_coeff 2 2.683 114.40

dihedral_style opls
dihedral_coeff * 0.06071 -0.011743 0.1363628 0.0

mass  1   14.00
mass  2   32.06
mass  3  196.97
mass  4  196.97


pair_style hybrid lj/cut 14.0 morse 14.0 eam
pair_coeff 1 1 lj/cut 0.00395 3.95 14.0
pair_coeff 2 2 lj/cut 0.01594 3.62 14.0
pair_coeff 3 3 eam Au_u3.eam
Reading potential file Au_u3.eam with DATE: 2007-06-11
pair_coeff 4 4 eam Au_u3.eam
pair_coeff 1 2 lj/cut 0.0000 3.785 14.0
pair_coeff 1 3 lj/cut 0.00258 3.44 14.0
pair_coeff 1 4 lj/cut 0.00 3.44 14.0
pair_coeff 2 3 morse 0.879 1.47 2.7 14.0
pair_coeff 2 4 morse 0.000 1.47 2.7 14.0
pair_coeff 3 4 lj/cut 0.00 2.934 14.0


group freeze type 4
100 atoms in group freeze
fix startend freeze setforce 0.0 0.0 0.0



################
# 3.  Simulation Settings
###############

neighbor        2.0 bin
neigh_modify    every 1 delay 0 check yes



# Define some variables
variable Lx          equal xhi-xlo   # Ang
variable Ly          equal yhi-ylo   # Ang
variable Lz          equal zhi-zlo   # Ang

variable dz          equal ${Lz}/30  # Ang
variable dz          equal 182.100820164033/30  

variable zzlo        equal zlo  # Ang
variable zzhi        equal zhi  # Ang
variable vol         equal ${Lx}*${Ly}*${Lz}  # Ang^3
variable vol         equal 20*${Ly}*${Lz}  
variable vol         equal 20*20*${Lz}  
variable vol         equal 20*20*182.100820164033  
variable TEMP        equal 300.00 # K
variable TThi        equal 320.00 # K
variable TTlo        equal 280.00 # K
variable dt          equal 0.00025 # ps

timestep     ${dt}
timestep     0.00025

variable zlo1      equal -26.0
variable zlo2      equal -11.0
variable zhi1      equal 135.0
variable zhi2      equal 150.0

# heat layers

region          hot  block  INF INF INF INF ${zlo1} ${zlo2}
region          hot  block  INF INF INF INF -26 ${zlo2}
region          hot  block  INF INF INF INF -26 -11
region          cold block INF INF INF INF ${zhi1} ${zhi2}
region          cold block INF INF INF INF 135 ${zhi2}
region          cold block INF INF INF INF 135 150
compute         Thot all temp/region hot
compute         Tcold all temp/region cold


# Second Equilibration
fix             1 all nve
fix             hot all langevin ${TThi} ${TThi}  0.005 59804  tally yes
fix             hot all langevin 320 ${TThi}  0.005 59804  tally yes
fix             hot all langevin 320 320  0.005 59804  tally yes
fix             cold all langevin ${TTlo} ${TTlo} 0.005 287859 tally yes
fix             cold all langevin 280 ${TTlo} 0.005 287859 tally yes
fix             cold all langevin 280 280 0.005 287859 tally yes
fix_modify      hot temp Thot
fix_modify      cold temp Tcold

variable        tdiff equal c_Thot-c_Tcold
thermo_style    custom step c_Thot c_Tcold f_hot f_cold v_tdiff
thermo            4000
run             800000
WARNING: Using a manybody potential with bonds/angles/dihedrals and special_bond exclusions (../pair.cpp:218)
Unused restart file peratom fix info:
  fix style: STORE, fix ID: layers_COMPUTE_STORE
Neighbor list info ...
  update every 1 steps, delay 0 steps, check yes
  max neighbors/atom: 2000, page size: 100000
  master list distance cutoff = 16
  ghost atom cutoff = 16
  binsize = 8, bins = 3 3 23
  4 neighbor lists, perpetual/occasional/extra = 4 0 0
  (1) pair lj/cut, perpetual, skip from (4)
      attributes: half, newton on
      pair build: skip
      stencil: none
      bin: none
  (2) pair morse, perpetual, skip from (4)
      attributes: half, newton on
      pair build: skip
      stencil: none
      bin: none
  (3) pair eam, perpetual, skip from (4)
      attributes: half, newton on
      pair build: skip
      stencil: none
      bin: none
  (4) neighbor class addition, perpetual
      attributes: half, newton on
      pair build: half/bin/newton
      stencil: half/bin/3d/newton
      bin: standard
Per MPI rank memory allocation (min/avg/max) = 10.93 | 11.62 | 12.32 Mbytes
Step c_Thot c_Tcold f_hot f_cold v_tdiff 
117601000    301.38259      283.548           -0           -0    17.834595 
117604000    344.09922      258.439   -1.2596437  0.080371939    85.660221 
117608000    334.01308    275.76074  -0.56917117  -0.19200599    58.252342 
117612000    308.96718    295.25157    1.1624582  -0.79801108     13.71561 
117616000     297.6739    268.03347   0.65940679   0.16824149    29.640423 
117620000    304.78887     283.6469    1.6137426   0.32254234    21.141961 
117624000     332.6772      284.818  -0.20275196   -1.6900338      47.8592 
117628000    348.33694    283.34258   -1.4466482  -0.58741874    64.994362 
117632000    311.37024    291.17903   -1.5129968   -1.0503798    20.191211 
117636000    328.14171    280.92688  -0.58179931   0.16510182    47.214836 
117640000    365.68923     257.4248   -2.4657233     2.626986    108.26443 
117644000    313.42432      272.043  -0.76268652    1.6830738    41.381318 
117648000    326.41917    288.36543   -1.6115078  0.046206398    38.053739 
117652000     327.2383    279.87155  -0.60258627   -0.2385267    47.366755 
117656000    338.85083    272.08692   -1.4910802   0.98522655    66.763903 
117660000    311.80215      281.746   0.71051932   -0.9052897    30.056158 
117664000    319.14828    275.83939   -1.2161898  -0.36063405    43.308893 
117668000    338.32066    291.17957   -1.5301411  -0.49508243    47.141092 
117672000    303.76933    296.75112   0.19401095   -1.7044156    7.0182048 
117676000    326.64221    273.37264  0.044428275  -0.34171251    53.269563 
117680000    302.85974    295.51156     1.872881   -1.9145919    7.3481853 
117684000    343.84927    286.30724  -0.42239475  -0.24298107    57.542032 
117688000    353.31984    285.23723   -1.0796714 -0.068201072    68.082607 
117692000    317.42979    296.25718    2.2093615   -1.7168093    21.172617 
117696000    332.24437     280.5859   0.74932299    -1.084803    51.658469 
117700000    308.71052    295.85029    1.0314191   -1.4111978    12.860227 
117704000    332.02747    275.43447  -0.18608478   -1.2278609    56.593001 
117708000    350.50406    275.22005    -0.127383  -0.68135351    75.284007 
117712000     330.0985    246.17737    1.2495492   0.51625884    83.921136 
117716000    328.78984      286.586   0.73101917    -1.279113    42.203833 
117720000    317.00904    280.96913    1.3982482  -0.89030053    36.039909 
117724000    307.12326    275.41493    1.9164241   0.38053351    31.708327 
117728000    316.38004     295.3095    1.9214205   -0.5691288    21.070546 
117732000    352.82391    265.89379   0.23456373   0.58193148    86.930128 
117736000    300.26757    299.81302    1.6737585   -1.7111167   0.45455273 
117740000    346.07463    302.90559  -0.64168697   -1.9075651    43.169037 
117744000    331.28494    277.07692   -1.5433483   -1.0628423    54.208026 
117748000    327.63214    269.84875   0.13335501   -1.1426236    57.783392 
117752000    308.21707     266.2086     1.776917   0.65915466    42.008471 
117756000    322.29155    262.40084  -0.31177227   0.24992013    59.890719 
117760000    319.98994    283.57358   0.11624608  -0.35040974    36.416359 
117764000    310.42986    278.22012   -0.7024176   -0.3063683    32.209744 
117768000    329.23392    294.27946   -1.4890222   -2.2241944    34.954466 
117772000    335.57061    278.49851   -1.0990985   -1.2459319    57.072097 
117776000    310.80532    278.27752   0.57820934  0.057982494    32.527798 
117780000    330.73425     279.9615  -0.45096122  -0.51566967    50.772751 
117784000    312.13913    269.47417   0.87394451   -1.1100857    42.664952 
117788000    316.84577    306.58224  -0.21701902   -1.3192496     10.26353 
117792000    339.84047    266.04055    0.2462137    1.0932035     73.79991 
117796000    355.64037    275.72735   -1.6809573   -1.0906681    79.913026 
117800000    306.93669    273.79423   0.22705478  -0.10278514    33.142461 
117804000    319.72994    291.90306 -0.020810182   -2.0476307    27.826883 
117808000    316.78189    291.15929   -1.2011724   -1.5658629    25.622596 
117812000    304.21508    256.15632    1.0175337   0.48953093    48.058756 
117816000    320.09564    291.10036    1.2513714   -2.0949761    28.995277 
117820000    318.09263    270.87206  -0.58886933   -0.7865817    47.220562 
117824000    319.14845     274.0576 -0.034971409   0.24445806    45.090855 
117828000    312.05284    262.13384    0.5832547     1.493776    49.918994 
117832000    349.59266    255.96241  -0.67049952   0.85292268    93.630248 
117836000    315.79982    263.44664   0.47273515  -0.15326851    52.353176 
117840000    323.33818    272.80486   0.80771636  0.064005598    50.533322 
117844000     327.6757    267.78558    0.3427679   0.47219799    59.890111 
117848000    322.85554    282.62319  0.019620605   0.95835355    40.232348 
117852000    316.04404     297.5714    1.1615426   0.28890997    18.472633 
117856000    321.88448    288.39827   0.45438942    1.4690066    33.486204 
117860000    325.90706    273.20384   0.41831052    1.8811039    52.703218 
117864000    313.52802    276.10822   0.16853031   0.85744836    37.419805 
117868000    305.58213    288.90759   0.42054762     1.315416    16.674541 
117872000    339.00765    287.82992   -2.2486399   0.28214944    51.177728 
117876000    301.63042    280.36172   0.35713714    0.2919368    21.268692 
117880000    329.14368    282.82153  -0.99455021   0.44182618    46.322154 
117884000    328.49091    283.64597   -1.2790676 -0.092562846    44.844935 
117888000    342.62142    273.42547   -2.2862452   0.75134587    69.195952 
117892000     312.2816    300.46517  -0.65737253  -0.61607013    11.816425 
117896000    317.02165    263.81498    0.5926436    0.8844955    53.206671 
117900000    335.54337    286.97012   0.75980774  0.037534603    48.573248 
117904000    303.42052    279.03318    1.1231943   0.70790366    24.387333 
117908000    312.30549    254.72557    1.1583552    1.5275586    57.579914 
117912000    347.19496    280.95714   -1.1515343  -0.21193147     66.23782 
117916000    321.56301    278.43863   0.86019107   0.59509744    43.124373 
117920000    309.01855    272.80144    1.2961941   0.27423262     36.21711 
117924000    312.78611    278.20061   0.88147589  -0.47702137    34.585499 
117928000    348.78933    277.42588  -0.88538742   0.60883673    71.363446 
117932000    342.02667    284.04545  -0.84525207  -0.60330676    57.981225 
117936000    326.27881    263.71828   0.56698268   0.81819209    62.560525 
117940000     315.1518    287.74733  -0.67792932   -1.2840444    27.404466 
117944000    308.22236    277.65341  -0.54324848  -0.49404855    30.568954 
117948000    339.11286    276.56694   -1.2153855   0.89218974    62.545919 
117952000    317.31173    282.79002  -0.76083657  -0.17622395    34.521709 
117956000    332.06161    259.40542   -1.2716603  -0.13042753    72.656193 
117960000    323.06067    282.36675   0.47175217   -1.4150201    40.693919 
117964000    323.05281    297.39449   0.71351959   -1.7379821    25.658317 
117968000    302.58314    305.56796 -0.0051586258   -1.5984575   -2.9848213 
117972000    326.67001    288.15501   0.92387839  -0.43633908    38.515001 
117976000    327.64675    281.82445   0.47465461  -0.43507201    45.822297 
117980000    305.73956    291.60131    1.2460477  -0.65607282    14.138247 
117984000    302.91383    291.91891 0.00023660851  -0.73827044    10.994916 
117988000    341.06996    266.00298   -1.6687103 -0.063853677    75.066971 
117992000    316.49077    288.03039    1.0843801   -1.2188743    28.460388 
117996000    323.57977    273.94451   0.37592064   0.69140523    49.635259 
118000000    304.07884    271.88705   0.55938439  0.086369059    32.191792 
118004000    298.15654    302.87541    0.9864913   -1.8616101   -4.7188686 
118008000    326.31754    268.38319   -2.0719972  -0.17355783    57.934342 
118012000    311.92018    284.85718 -0.019600636  -0.30527492    27.062996 
118016000    308.89646    284.15597    1.3370059   0.69395318    24.740491 
118020000    325.53109    274.32489  -0.80823436   0.41911844    51.206201 
118024000    321.55004    282.87904  -0.96820475  -0.18589479    38.671006 
118028000    314.96529    307.15461  -0.10245092    -1.213371    7.8106872 
118032000    323.58996    285.08139   0.26951661  -0.22697963    38.508562 
118036000    310.17385    282.95534   0.58936968  -0.34026692    27.218511 
118040000    318.54918    274.17869 -0.032408054  0.044171325    44.370486 
118044000    295.00296    273.00413   0.38499341  -0.16659406    21.998834 
118048000    339.25335    255.28883  -0.96704516    1.6434342    83.964514 
118052000    338.01232    285.58486  -0.84686351   0.14502864    52.427462 
118056000    320.09644    284.14032  -0.52839379   -1.4877315    35.956118 
118060000    320.17161    289.23184   0.15847288   -0.8580426    30.939769 
118064000    317.33141    278.82469   -1.0159721  -0.91279196    38.506714 
118068000    301.32989    284.10694   0.46924936   -1.3482602    17.222953 
118072000    329.31203    305.75513 -0.019039716   -2.5241222    23.556893 
118076000     291.9922    267.06138   0.81296984   0.52347154    24.930825 
118080000    324.74379    275.16845   -1.9255593   -0.4902645    49.575331 
118084000    335.49176    271.76591   -1.4679512  -0.78614579    63.725845 
118088000    313.13507    274.75722  -0.92226936   -1.1383287    38.377851 
118092000    313.16471    268.39592  -0.16594093  -0.44231711    44.768797 
118096000    352.53857    312.20044   -2.7388993   -2.9651124    40.338132 
118100000    327.48152    279.99398  -0.33812733   -1.7830929    47.487537 
118104000    323.04257    273.89315   -1.6729225   -1.5013317    49.149417 
118108000    324.45826    282.86665  -0.59832562   -1.1414759    41.591605 
118112000    315.39794    268.93733 -0.086965985  -0.92930693    46.460606 
118116000    323.11101    275.54633  0.088435453  -0.44761352     47.56468 
118120000     331.3323    271.18223    -2.190423  -0.51065196    60.150063 
118124000     326.2724    313.51385   -1.6176257   -2.4221776    12.758554 
118128000    310.52277    282.70263   -0.8795688  -0.75439667    27.820137 
118132000     311.8245    269.97514 -0.031001815   0.31034783    41.849356 
118136000    320.75663    284.88102   -2.1720295   0.14707966    35.875606 
118140000    318.79817    280.35624   0.32910546  -0.69781577    38.441929 
118144000    329.47334    275.29364  -0.92882736   0.80229583      54.1797 
118148000    320.91542    277.64345  -0.58395002   0.10446605    43.271965 
118152000     321.2555     323.6379  -0.87643267   -2.5292244   -2.3823956 
118156000    312.76025    270.57279   -1.2645056  -0.72255588    42.187456 
118160000    317.52769    289.24156  -0.16022086   -0.9646468    28.286133 
118164000    323.74782    276.86652  -0.28506766 -0.019379926    46.881296 
118168000    298.58936    295.57895    1.0971195   -2.1783101    3.0104035 
118172000    338.67106    263.80109   -2.5447276  -0.33746948    74.869976 
118176000    337.56838    269.93532   -1.9735638  -0.45508889    67.633062 
118180000    321.90144    294.96275   -1.1040327   -1.8816911    26.938687 
118184000    321.95248    278.43897  -0.25987464  -0.83695956    43.513509 
118188000    313.31281    288.31534  -0.42740847   -3.0264613    24.997468 
118192000     293.2551    291.33143    1.5494836   -2.8258728    1.9236761 
118196000    316.82662    282.68179   0.45519942   -2.9397268    34.144835 
118200000    329.80527    289.17598 -0.089851321   -2.2401567    40.629293 
118204000    302.70839     292.8892   0.12821618   -2.1970205    9.8191945 
118208000    333.13094    274.42303  -0.42556973   -1.0734408    58.707918 
118212000    307.81583    283.79317  -0.16176557   -1.6464907    24.022658 
118216000    321.05026    277.02886    0.1873638   -1.1866219    44.021402 
118220000    326.23596    284.51042   0.80703332   -1.7208615    41.725539 
118224000    332.30314    296.17969 -0.069027466  -0.79264412     36.12345 
118228000    303.88918    285.53601    1.5679399  -0.91167661    18.353167 
118232000    312.87158    256.39651 -0.016189239  -0.20636652    56.475071 
118236000    343.32638    262.92677  -0.92390451   0.45119525    80.399611 
118240000    325.17796    290.40257   0.37668202   -0.8665098    34.775396 
118244000    304.40653    277.68657   0.39184103  0.020165101    26.719959 
118248000    340.76939    290.48155  -0.34413803   -1.4330348    50.287834 
118252000    330.16816    260.16109  -0.74287642  -0.79454655     70.00707 
118256000    320.00299    285.91085  -0.47235211  -0.61311066     34.09214 
118260000    311.75692    283.33356   0.78392467    -1.198096    28.423361 
118264000     313.6715    272.31029 0.0061598957  -0.40849178    41.361214 
118268000     334.5234    287.60751   -1.4843241  -0.87891193    46.915883 
118272000    331.42767    263.93848   -1.1324298   0.54151816    67.489187 
118276000    343.65539    282.30058   -2.6507284  -0.99307258    61.354814 
118280000    337.08066    289.08907  -0.86615662   -2.0113774    47.991586 
118284000    314.60933    274.89818   0.39500411   -0.8288059    39.711149 
118288000    318.90815    295.40277   0.49664989   -1.8986018    23.505385 
118292000    322.82247    302.93013   -1.4019207   -1.6156523    19.892342 
118296000    300.11251    302.35895  -0.45104701  -0.91106814   -2.2464379 
118300000    325.31898    277.76613   -1.1996888  -0.44933665    47.552858 
118304000    325.26021    275.36048   0.51809193  -0.39398035    49.899723 
118308000    347.06982    268.50723  -0.89866498   -1.6405713     78.56259 
118312000    330.26406    277.26886   -0.6760135   -1.3044648    52.995201 
118316000    306.21679    279.08183   0.33358342  -0.93223405    27.134952 
118320000    330.30714    279.16865   -0.8201594   -1.1474057    51.138493 
118324000    348.67292    286.96165   -1.3461964   -1.6098513    61.711271 
118328000    331.73381    298.42488  -0.88802225   -1.5798482    33.308933 
118332000    332.77762    278.92583  -0.88238689  -0.80957414    53.851788 
118336000    327.06588    272.48009   -1.2966239  -0.01016496    54.585785 
118340000    317.35723    290.91725   -0.3140661  -0.29930351    26.439987 
118344000    337.74047    268.90484  -0.42815591  -0.36649662    68.835629 
118348000    310.14607    271.26057   0.64350419  -0.11979586    38.885493 
118352000    327.47797    296.02053  -0.63106899   -1.9135158    31.457445 
118356000     325.0422    270.41325   -1.4876592  0.017559478    54.628948 
118360000    336.35943    265.99287   -1.8071192  -0.20216928    70.366564 
118364000    324.38124    286.08217  -0.18295924  -0.24827722    38.299066 
118368000    324.98212     285.5297  -0.83160916   0.71059836    39.452424 
118372000    318.94707    291.73345   0.18200702  -0.29450459    27.213625 
118376000    310.92256    287.19844 -0.065479063   -1.7169987    23.724118 
118380000    316.23048    284.00505  -0.57283158  -0.51947278    32.225426 
118384000    328.67093     277.0783  -0.91660123   -0.2473928    51.592622 
118388000    334.81933    247.04727  -0.37145661   0.74504537    87.772061 
118392000    324.24887    303.28063   -1.3737579   -1.2019807    20.968238 
118396000    330.40817    276.94302  -0.70590306   0.58320267    53.465145 
118400000    307.14379    278.34865  -0.13666565   0.92088707     28.79514 
118401000     341.2334    282.97485   -1.0218081   0.68622125    58.258557 
Loop time of 1066.84 on 4 procs for 800000 steps with 1498 atoms

Performance: 16.197 ns/day, 1.482 hours/ns, 749.879 timesteps/s
99.6% CPU use with 4 MPI tasks x no OpenMP threads

MPI task timing breakdown:
Section |  min time  |  avg time  |  max time  |%varavg| %total
---------------------------------------------------------------
Pair    | 533.64     | 736.11     | 946.74     | 733.2 | 69.00
Bond    | 3.272      | 5.1372     | 6.8873     |  76.7 |  0.48
Neigh   | 5.8595     | 5.8608     | 5.8621     |   0.0 |  0.55
Comm    | 14.02      | 209.46     | 412        |1346.2 | 19.63
Output  | 0.0054031  | 0.015586   | 0.025707   |   5.8 |  0.00
Modify  | 56.381     | 85.395     | 115.9      | 231.5 |  8.00
Other   |            | 24.86      |            |       |  2.33

Nlocal:    374.5 ave 714 max 35 min
Histogram: 2 0 0 0 0 0 0 0 0 2
Nghost:    2375.5 ave 4264 max 496 min
Histogram: 2 0 0 0 0 0 0 0 0 2
Neighs:    13074 ave 25893 max 313 min
Histogram: 2 0 0 0 0 0 0 0 0 2

Total # of neighbors = 52296
Ave neighs/atom = 34.9105
Ave special neighs/atom = 0.518024
Neighbor list builds = 1420
Dangerous builds = 0
unfix 1


# PRODUCTION

fix             1 all nve
fix             hot all langevin ${TThi} ${TThi}  0.005 59804  tally yes
fix             hot all langevin 320 ${TThi}  0.005 59804  tally yes
fix             hot all langevin 320 320  0.005 59804  tally yes
fix             cold all langevin ${TTlo} ${TTlo} 0.005 287859 tally yes
fix             cold all langevin 280 ${TTlo} 0.005 287859 tally yes
fix             cold all langevin 280 280 0.005 287859 tally yes
fix_modify      hot temp Thot
fix_modify      cold temp Tcold

variable        tdiff equal c_Thot-c_Tcold
thermo          4000

dump gigo all atom 4000 dump.cords_xyz.dat
dump_modify gigo scale no
dump vfgigo all custom 4000 dump.velo.dat id vx vy vz fx fy fz

# thermal conductivity calculation
# # reset langevin thermostats to zero energy accumulation
#
compute         ke all ke/atom
variable        temp atom c_ke/1.5/0.00008617333262

fix             ave all ave/time 100 40 4000 v_tdiff ave running
thermo_style    custom step temp c_Thot c_Tcold f_hot f_cold v_tdiff f_ave

#compute         layers all chunk/atom bin/1d z lower 0.05 units reduced
compute         layers all chunk/atom bin/1d z lower ${dz} units box
compute         layers all chunk/atom bin/1d z lower 6.0700273388011 units box
fix             2 all ave/chunk  100 40 4000 layers v_temp file profile.langevin

run             16000000
WARNING: Using a manybody potential with bonds/angles/dihedrals and special_bond exclusions (../pair.cpp:218)
Neighbor list info ...
  update every 1 steps, delay 0 steps, check yes
  max neighbors/atom: 2000, page size: 100000
  master list distance cutoff = 16
  ghost atom cutoff = 16
  binsize = 8, bins = 3 3 23
  4 neighbor lists, perpetual/occasional/extra = 4 0 0
  (1) pair lj/cut, perpetual, skip from (4)
      attributes: half, newton on
      pair build: skip
      stencil: none
      bin: none
  (2) pair morse, perpetual, skip from (4)
      attributes: half, newton on
      pair build: skip
      stencil: none
      bin: none
  (3) pair eam, perpetual, skip from (4)
      attributes: half, newton on
      pair build: skip
      stencil: none
      bin: none
  (4) neighbor class addition, perpetual
      attributes: half, newton on
      pair build: half/bin/newton
      stencil: half/bin/3d/newton
      bin: standard
Per MPI rank memory allocation (min/avg/max) = 12.03 | 12.29 | 12.44 Mbytes
Step Temp c_Thot c_Tcold f_hot f_cold v_tdiff f_ave 
118401000    281.01733     341.2334    282.97485           -0           -0    58.258557            0 
118404000    273.67739    341.59061    254.03153  -0.36174483   0.80092694    87.559087            0 
118408000    275.97929    330.76687    258.46999   0.38100008   0.26862381    72.296876    38.225914 
118412000    275.77411    321.02277    278.02249  -0.42189924  -0.46099178    43.000281    39.851648 
118416000    264.11543    302.75299    268.88367    1.1745914   0.31317564    33.869316    39.460648 
118420000    279.21568    312.13481    293.30326   0.95359446  -0.40858663    18.831546    39.881536 
118424000    278.79874    330.10196    289.90442  -0.80111458    -1.102367    40.197543    40.398157 
118428000    276.31613    336.78672    280.73537  -0.86599353  -0.27350479    56.051351    40.462495 
118432000    276.63446    327.79228    288.63405  -0.78907936  -0.33703758    39.158231    40.485229 
118436000     276.5692    335.20621    276.44169   0.22492627   0.09412518    58.764523    40.839446 
118440000    279.05943    332.14751    286.40498 -0.096909506  -0.63964504    45.742523    40.449438 
118444000    286.51194    329.51897    296.02899 -0.073347903   -1.6773684    33.489984     40.33752 
118448000    272.97295    318.15761    274.63892   0.37807195   -1.6284471    43.518684    40.578674 
118452000    273.99612     320.4181    267.82718  -0.39142262  -0.78919793    52.590918    40.557774 
118456000     275.9192    321.85051    277.65974   0.58759279  -0.80054207     44.19077    40.185064 
118460000    281.15821    319.27837    280.55824  -0.64930726   -1.0377765    38.720129    40.399121 
118464000    273.24166    309.81004    281.82518   0.60284297   -1.4086865    27.984855    40.304251 
118468000    279.30086    322.50038    269.19947   0.31760929   -1.9977228    53.300912    40.214792 
118472000     284.2192    324.81552    290.23071 -0.010843318   -2.2793751    34.584807    40.518322 
118476000    268.64402    318.52093    258.63913    1.5173053  -0.17346934    59.881801    40.519426 
118480000     277.0334      307.905    289.05796    2.1926609   -1.7265859    18.847036    40.710349 
118484000    271.94912    301.68789    281.47844    0.8389107   -1.0579637    20.209448     40.47458 
118488000     277.1511    341.08733    273.88704  -0.97053319  -0.95765394    67.200297    40.649197 
118492000    272.44295    315.97341     283.0637 -0.094464496  -0.75722549    32.909711    40.634951 
118496000    273.27284    297.88711    274.21072  -0.53417091   -1.0465324    23.676389    40.706635 
118500000    276.90813    299.01452    291.44226   0.73953441   -1.8751341    7.5722599    40.695073 
118504000    270.57195    330.84916    272.94566  -0.16791991   0.38771645    57.903498    40.713882 
118508000    286.97741    339.81435    286.59148  -0.94436835  -0.87932554    53.222873      40.7711 
118512000    275.97599    326.59858    270.68225  0.001365547  -0.40697157    55.916326    40.555714 
118516000    280.01346    335.87006    285.14404  -0.63049956   -1.0786881    50.726022    40.466522 
118520000    262.10366    287.18006    284.40394    1.8345307   -1.2354176    2.7761185    40.418212 
118524000    266.60888    291.27616    279.18802   0.19097067   -1.3475115    12.088137    40.350689 
118528000    268.55141    311.26247     282.3511   0.36656435  -0.49226794    28.911368    40.218409 
118532000    282.52708    327.51391    281.45836  -0.72175564  -0.82552452    46.055548    40.323782 
118536000    271.50291    305.56469    283.25773  -0.80770953  -0.92687417     22.30696    40.298894 
118540000    274.59148    311.60535    283.90128  -0.83833737  -0.59166228    27.704067    40.247072 
118544000    279.50977    318.58703    283.25336   -1.7858713 -0.047530865    35.333666    40.280199 
118548000    273.38078    317.35067    269.94525    -1.416416   0.26736013    47.405424    40.158158 
118552000    277.57593    343.00141    256.72383   -1.3344369  0.044251294    86.277577    40.187524 
118556000    280.33536    317.38766    295.31445   -1.1716581   -1.6074221    22.073218    40.355667 
118560000    268.61749    310.16332    267.27172   0.61294371   0.11843836    42.891599    40.380151 
118564000    283.29112    320.60105    299.24362  -0.16671503   -1.3056903     21.35743    40.470557 
118568000    284.85452    313.53368    295.40117   0.50735822   -2.2614071    18.132507    40.427093 
118572000    280.90128     338.9089    273.04332  -0.72249394   -1.1957694    65.865585    40.596916 
118576000    276.63128    322.59817    279.00603   0.20038535    -1.369256    43.592139    40.610074 
118580000    278.58891    331.87349    270.44281   0.49913759  -0.81636307    61.430682    40.692409 
118584000    274.81582    317.48464     276.3917   0.59920195   -1.8456087    41.092936    40.666016 
118588000    281.16559    344.33242    278.16502  -0.98595637   -0.7840128    66.167404    40.794305 
118592000    281.00275    321.78389    284.51345  -0.38170202   0.32925802    37.270434    40.742538 
118596000    288.00368    342.40615    290.61657   -1.0926502  -0.97678341    51.789578     40.69344 
118600000    278.92993       312.21    295.32959   0.65324232    -2.274434    16.880406    40.546395 
118604000    277.26268    300.69408    284.30359   0.70595042   -1.5335955    16.390488    40.565924 
118608000    283.43831     327.9063    293.42182   0.18604013   -2.3067385    34.484482    40.527167 
118612000    268.25653    316.81249    261.65835 -0.017472325  -0.24555839    55.154133    40.561241 
118616000    282.52897    327.74081    289.60537  -0.95439009   -2.9570599    38.135443    40.540332 
118620000    273.09243    305.26639    271.93493  0.020439957   -1.1581894    33.331461     40.46566 
118624000    280.34333    336.41797    275.90555   -0.5449221   -1.6451935    60.512416    40.499594 
118628000    269.96753    310.00357    270.76314   0.23538606  -0.86682818    39.240424    40.532964 
118632000    280.72481     352.8472    258.25498   -1.6616859    -1.138864     94.59222    40.503778 
118636000    266.18656    303.89448    264.35938   0.82846224   -1.4550927      39.5351    40.569143 
118640000     276.0302    341.86834    264.47112  -0.81251668   -1.6798753    77.397218    40.564224 
118644000    280.34663    320.02898    273.29321    0.2764928  -0.75632591    46.735769     40.57787 
118648000    277.77968    323.21045      290.487   0.37347475   -1.1118779    32.723458    40.635223 
118652000    281.49732    328.40675    295.13628  0.021624438   -2.2308859    33.270471    40.606564 
118656000    278.85844    332.93355    288.61374    1.0583771   -1.0619917    44.319812    40.699588 
118660000    273.37363    328.77369    281.23772  0.056273678   -1.0226017    47.535972    40.782804 
118664000    277.48594    332.35988    278.91993  -0.92164912   -1.1047512    53.439955    40.774093 
118668000     274.9981    319.24424    304.83956    1.2511766   -2.3850546    14.404677    40.723002 
118672000    276.11152    323.62632    270.96043  0.028954169 -0.030306088    52.665891    40.729061 
118676000    278.52813    312.82038    305.36796   0.83588735   -2.2715394    7.4524193     40.76411 
118680000    274.16098    316.26291    274.35718  -0.47878668   -1.2426898     41.90573     40.74001 
118684000    278.71677    336.67777    286.50446  -0.45017333  -0.69333895    50.173309    40.682407 
118688000    266.69269    306.53106    264.95039      1.29733    0.1533697    41.580674    40.761117 
118692000    282.07073    336.48171    283.58491   -1.2375525   -1.1925134    52.896807    40.807529 
118696000    266.82743    300.16195    263.68594    1.6892677   0.41934851    36.476005    40.759927 
118700000    278.15332    319.85723    292.00719   0.13375191   -2.0251364    27.850042    40.774258 
118704000    264.13607    293.97796    261.03426    1.0462671  -0.35994444    32.943705    40.835296 
118708000    273.30151    314.34609    272.80745   -1.3473483  -0.61258349    41.538634    40.839367 
118712000    283.79391     346.2521    277.13877   -1.8083578  -0.80341016    69.113328    40.834767 
118716000    276.90269    329.53917    272.64386   0.11229553   0.37859407    56.895307    40.822906 
118720000    267.48776    295.66847    273.90559    0.3492242   0.67451679     21.76288    40.848066 
118724000    282.87083    318.21154    295.42021   0.17711092  -0.92675307    22.791323    40.879821 
118728000    279.81289    319.83931    270.02164    0.1396865  -0.48339341    49.817676    40.864166 
118732000    279.57051    324.13003    279.96504   -1.2960607   0.12354392    44.164986    40.857873 
118736000    270.50697    316.36978    293.39166   0.94412165  -0.29844723    22.978122    40.887853 
118740000    275.87738    320.42119    279.69057  0.036252539  -0.98829967    40.730625    40.900491 
118744000    273.88584    317.57344    285.05165   0.48217693  -0.49132291    32.521789    40.921811 
118748000    277.10425    310.70991    284.12646   0.79098278  -0.93453821     26.58345     40.92384 
118752000    285.15204    319.17168    294.07009  -0.49858994   -1.5074021    25.101585    40.933561 
118756000     277.9336     326.4234    274.24326   -1.7958221  -0.90629205    52.180136    40.938008 
118760000     283.6965    320.31731    290.96733  -0.89168831   -1.3740044     29.34998    40.965289 
118764000    282.03975    327.46017     279.1743   -2.0722871   -1.9784287     48.28587    40.955965 
118768000    287.92504    304.31451    290.95233   0.20088063   -1.2593247    13.362181    40.951483 
118772000    277.30688    306.49443    276.91641  0.060446532  -0.96619494    29.578027    40.974163 
118776000    275.30689    315.09178    296.34495  0.024960222   -2.1136107    18.746839    40.933442 
118780000    268.21983    298.47995    265.93829  0.032405815   -0.9210854    32.541658    40.961993 
118784000    275.06761    307.26394    279.81915   0.36392141   -1.4360573    27.444784    40.928234 
118788000     281.2379    316.59058    293.64579   -1.2547453   -1.1850136    22.944791    40.911952 
118792000    285.92751    301.49211    319.68562  -0.47613027   -2.6064881   -18.193515    40.890212 
118796000    278.72299    328.70659    281.67893   -0.9381392  -0.62788745    47.027663     40.88499 
118800000    281.84598    323.04794    268.75711  -0.67767482 -0.025711296    54.290834    40.900452 
118804000    274.38378    321.12416    280.47291   -1.2855135   -1.7405682    40.651253    40.906998 
118808000    282.30931    350.30381    284.75094   -2.1135096  0.064524676    65.552861    40.902311 
118812000     279.9465    319.50212    284.79329  -0.17710354   -1.1396374     34.70883    40.929246 
118816000    275.49861     336.0356    286.87444   -1.2836404 -0.011316938    49.161161    40.958469 
118820000    278.23709    319.98716    287.06324  -0.23602963  -0.65645448    32.923922    40.872963 
118824000    283.15848    334.48679    287.77848   -1.3200787   -1.2914293     46.70831    40.864812 
118828000    276.31477    294.09612    302.46351    0.7732562   -1.7325827    -8.367386    40.808857 
118832000    276.31244    293.83501    306.87565   0.24921401   -1.4458875   -13.040633    40.775961 
118836000    279.96991    321.97806    290.75259  -0.81287767  -0.37671804    31.225476    40.782084 
118840000    270.37403    312.02907    268.17946  0.079785402  -0.24400916    43.849608    40.810481 
118844000    276.82222    305.07543    279.79097   0.26955836   -1.4882368    25.284457     40.77175 
118848000    275.30536    327.80899    271.86333   -1.8029376     1.203236    55.945657    40.800163 
118852000    273.37539    321.63602    257.80675   -1.3015965    1.6576752    63.829264    40.791218 
118856000    279.71516    332.86408     260.8331   -2.5995188    1.8934163    72.030983    40.783674 
118860000    272.87308    318.71329    281.73986   -1.7913439    1.3183088    36.973428    40.791475 
118864000    285.67253    321.40072    301.73897   -1.3767005   0.53937673    19.661747    40.760575 
118868000    276.43804    317.00671    285.87834  -0.54326416   0.13101993    31.128368    40.742355 
118872000    278.97982    328.24681    276.07304   -1.8485886   0.19994045    52.173765    40.795663 
118876000    273.13468     300.2261    288.59604   0.19208585   0.30139269    11.630059    40.800913 
118880000    271.67053    298.17302    265.68701   0.36546469    1.1659368    32.486006    40.741595 
118884000    281.74165     333.1803    290.40905   -2.1582694    0.2218655    42.771247    40.729549 
118888000    278.95769    309.67283    283.13918  -0.25806325  -0.83451236    26.533647    40.677913 
118892000    274.41522    329.96772    284.01482 -0.060309157 -0.094387413    45.952907    40.709799 
118896000    284.62874    347.21013    290.52331   -1.7759307  -0.13455581    56.686818    40.735686 
118900000    284.73604    350.94847    274.91162   -1.2723933  -0.22213327     76.03685    40.742483 
118904000    283.02424    344.62849    272.62993   -2.1494561   -0.7373604    71.998564     40.73691 
118908000    285.89509    329.37497     303.0233   -1.6102536   -2.6177997    26.351677    40.721314 
118912000    288.88177    312.25317    304.26815    -0.218561   -1.9605777     7.985022    40.706663 
118916000    279.14666    300.28909    293.69842   0.90299539   -2.7463685    6.5906773    40.702452 
118920000     285.6884    332.33501    266.93366   -1.4842901   0.32030862    65.401348    40.746253 
118924000    288.43254    338.86256    309.21754   -1.6279265   -2.1265176    29.645021    40.723934 
118928000    264.97919      297.762    268.23779  -0.42394954 0.0093699131    29.524212    40.683577 
118932000    281.29739     317.9751     298.5831   0.18024234   -1.4352121    19.392002    40.641832 
118936000    273.73963    305.80582     260.8989   0.40417481  -0.20665572    44.906914    40.658101 
118940000    284.31613    333.94483    288.57336  -0.27632046    -1.726526    45.371468    40.648183 
118944000    272.08695    317.61645    269.50682   -1.0489714   0.59054689    48.109628    40.646502 
118948000    279.05346    327.82104    292.90861   -2.0073949 -0.0010726972    34.912431    40.645266 
118952000     273.2864    326.53226    258.67254   -1.7440004    1.1502511    67.859722    40.612352 
118956000    283.07497    338.27388    282.77569   -3.1447646 -0.050979671    55.498183    40.595237 
118960000    279.07153    335.92451     261.8364   -2.6074925    1.0669946    74.088111    40.601123 
118964000    279.18016    316.63699    274.52704  -0.44590565  -0.37314105    42.109948    40.552205 
118968000    274.26634    305.57867    275.75897 -0.056926688  -0.21681221    29.819704    40.555723 
118972000    271.89929    323.53243    270.46652   -1.1523202   0.19058126     53.06591     40.54784 
118976000    279.89643    307.69622    288.93181   -2.1350191  -0.84546842    18.764404     40.48527 
118980000    278.37329    320.95763    293.33967   -1.1711484  -0.28030317    27.617964    40.473426 
118984000    284.59305    325.93606    291.68618   -1.4300528  -0.75322232    34.249873    40.468704 
118988000    278.77309    331.11542    287.86686   -1.7467547  -0.47203677    43.248561    40.492832 
118992000    275.40569    314.36041    301.93484  -0.88706878   -1.7771746    12.425571    40.471594 
118996000    276.05151    314.26095    276.28569   -1.4398289  -0.26855923    37.975256    40.493339 
119000000    268.65856    295.19201    277.11153 -0.093333985   0.14809265    18.080479    40.489633 
119004000    276.34536    313.54963    308.80456   -2.1853162   -1.2809655    4.7450642    40.471514 
119008000    286.90746    351.15643    298.48243   -3.9711635   -1.0131537    52.674001    40.453477 
119012000    278.64594    319.50079    281.00806    -1.471329  0.021825404    38.492731     40.46327 
119016000    274.26219    321.14481    259.12974   -1.7256311    1.3131474    62.015077    40.465931 
119020000    284.01031    325.67957    297.78607   -1.6026522   0.59818549    27.893499    40.465111 
119024000    289.24865    337.01154    307.04697   -1.6462205   -1.4329183    29.964569    40.460686 
119028000    281.72869    321.62286    279.10632   -1.2708817    1.3986635    42.516541    40.468631 
119032000     282.5469    335.55743    279.59635   -1.1934375  -0.57978103    55.961082    40.496086 
119036000    287.37703    341.22827    285.98444  -0.96695351   -0.1875539    55.243832    40.470438 
119040000    273.22849    330.49147     261.7914  -0.21513336   0.57088903    68.700066    40.480553 
119044000    268.64164    299.05007    271.82563    1.0156273   0.11687124    27.224438    40.486855 
119048000    278.33579    324.22742     285.1732  0.077080941  -0.83789351     39.05422    40.486051 
119052000    282.86054    336.85169    278.27329   -1.1651172  -0.79096819    58.578404    40.496921 
119056000    281.50671    331.54713    276.04407  -0.43851526   0.60708286    55.503062    40.516583 
119060000    269.91198    304.91676    276.01568  -0.41106915   0.33193837    28.901081    40.484035 
119064000    278.00233     318.2761    282.30881   -1.6355909  -0.33464556    35.967289    40.458951 
119068000    273.45794    317.42068    278.04552  -0.84530926   0.81691137    39.375158    40.437063 
119072000    277.54907    318.97985    273.34336   -1.4215829  -0.29340084    45.636493     40.42028 
119076000    276.51586     321.8216    288.77234   -1.0669656  -0.32413172    33.049257    40.400398 
119080000    264.10047     300.4607     249.7419   0.21947193    1.8185221    50.718801    40.387248 
119084000    269.97693    317.64144    266.24456   -1.3516632     1.369934    51.396883    40.405754 
119088000    275.42043    326.30817    272.51641  -0.79343215  -0.30626248    53.791755     40.42719 
119092000    276.08096    319.37902    289.23633  -0.92133085  -0.84137816    30.142687    40.415753 
119096000    270.69502    315.06675    284.53078  -0.19348214    1.2823032    30.535973    40.410431 
119100000     281.0625    323.41938    286.05615  -0.66419446   0.17132271    37.363229    40.415731 
119104000    275.82388    320.49498    270.93361   -0.2295895   0.86155711    49.561366    40.398483 
119108000     282.9006    335.51867    288.80116  -0.62718008  0.022373338    46.717511    40.388485 
119112000    277.07891    336.94281    260.92056   -1.0900065    1.7793346    76.022253     40.38061 
119116000    279.62977    323.97951    290.21978   0.41955153  0.031137447    33.759733    40.375417 
119120000     277.1956     323.5956    278.74774   0.19161699   -1.0201515    44.847859    40.350314 
119124000    281.18736     352.7106    269.87208   -1.5249609     1.363486    82.838526    40.361459 
119128000    279.23732    331.98454    291.20517   -1.1310597   0.65474679    40.779367    40.362737 
119132000    267.97989    311.16111    273.26475  -0.10340849     1.977226    37.896358    40.374472 
119136000    277.03334    326.49698    276.80274   -1.6580365    1.2999855    49.694242    40.386083 
119140000    275.27795    311.86451    273.42044  0.049858382   0.58220102     38.44407    40.389398 
119144000    278.11616    338.07107    286.49668   -2.9039692  -0.34828888    51.574394    40.398548 
119148000    273.04954    317.72939    272.31983  -0.52912535   0.68084833     45.40957    40.405549 
119152000    272.74315    320.02583    277.71091   0.11575093   0.64717871    42.314917     40.39974 
119156000    279.63934    338.84066    274.87909   -2.2466652   0.41799349    63.961569    40.375928 
119160000    281.77442    346.78972    278.38212   -2.8080026   0.27795878    68.407601    40.379139 
119164000     273.2259    318.06645    273.74381    -1.997583   0.35652338    44.322637    40.390604 
119168000    270.62358    319.60353    272.73486   -1.8486643    2.0273016    46.868667      40.3693 
119172000    278.47049     341.0959    273.30697   -3.2749635    2.0426115    67.788929    40.377937 
119176000    278.82603    318.70602     309.1681  -0.49816457   -1.0800492     9.537914    40.369247 
119180000    266.04044    305.47922    276.97093  -0.54197043   0.43660722    28.508291    40.385598 
119184000    274.48734    328.19127    272.83783   -2.4028384   0.95874249    55.353433    40.371402 
119188000     276.9884    331.42898    274.77851  -0.38146018   0.83622525    56.650468    40.365281 
119192000    260.57123     294.8752     276.4039    0.2775719    1.2266193    18.471308    40.347989 
119196000    268.24974     301.4054    271.49134  -0.10436218    2.3605033    29.914055    40.367505 
119200000    273.76118      334.495    279.42406   -1.0500419    2.4368736    55.070942    40.361052 
119204000    273.04083    307.01404    291.90317   0.82355038    1.1662046    15.110868    40.340663 
119208000    270.09701    307.80492    275.48058    0.4137364    1.4023208     32.32434    40.339428 
119212000     268.7033    307.27117     264.9024  -0.55540911    1.1196022    42.368771     40.34269 
119216000    272.39615    311.70254    282.55578  0.015900066    1.2992366    29.146764    40.349442 
119220000    283.44768    338.55752    289.54354  -0.67439755    1.2867735    49.013985    40.356538 
119224000    278.52062    347.08376    285.70851    -2.322478    1.3103866    61.375253    40.365238 
119228000    268.24261    309.62549    276.10287  -0.95453326    2.6338614    33.522618    40.384744 
119232000    274.90204    328.58024    289.63341   -2.4070542    1.8113341    38.946836    40.370901 
119236000      277.504    313.03839    297.05025   -2.2604168   0.55917069    15.988135    40.378131 
119240000    269.50432    325.88392    280.03998   -2.0041256    2.9599722    45.843945      40.3798 
119244000    275.83534    327.72837     263.9498   -1.5097978    3.1982881    63.778572    40.386601 
119248000    284.51963    337.72073    296.61929   -3.0765055    1.5650229    41.101434    40.397668 
119252000    271.73745    327.36483    285.86419    -1.415808    2.4531718    41.500643    40.410358 
119256000    269.01909    311.47716    274.06125   -1.5606411    2.8051255     37.41591    40.424008 
119260000    272.60816    309.00406    288.23133   -2.2609846    3.2110873    20.772737    40.437101 
119264000    269.93489    302.68569    285.70001   -1.8798044    2.6526586    16.985677    40.448071 
119268000    271.30078    311.74036     280.4321   -1.4935133     1.573393    31.308261    40.440933 
119272000    274.64601    321.37653    274.17186   -2.3130559    2.0897088     47.20467    40.442579 
119276000    261.71775    301.60271    254.69838   -1.4570028     2.633887    46.904332    40.435871 
119280000    276.69628    321.56142    280.15216   -2.5581633     2.687614    41.409258    40.433461 
119284000    281.16499    344.78478    278.92435   -3.6869981    2.8496772    65.860425    40.422621 
119288000     284.5049    332.89318    277.66018   -3.4379538    2.1670925    55.233001    40.414401 
119292000    275.78901    312.58898    277.93468   -2.2855911    2.0724371    34.654303    40.418365 
119296000    266.37981    292.70346    282.44609   -1.0939215    2.1838251    10.257367    40.412192 
119300000     269.7142    308.32771    277.46808   -1.3143572    1.6064603    30.859631    40.418931 
119304000    273.50581    317.87956    279.39328   -3.4001586    2.2919063    38.486279    40.428648 
119308000    268.88037    319.14736    272.35251   -2.4613257    3.8678442    46.794845    40.440686 
119312000    275.75436    321.50501    272.98742   -3.3744528    1.9504661    48.517591    40.439388 
119316000    280.92372    332.24119    292.34842   -3.7316611    1.8680821    39.892767    40.437482 
119320000    277.50375    324.47273    292.34802   -2.6249411    2.1829787    32.124711    40.446566 
119324000    276.60261    332.37449    288.90985   -2.2725691    1.3318503    43.464635    40.467967 
119328000    274.95961    326.99357    276.88905   -2.1626739    2.5434277    50.104519    40.464212 
119332000     265.2512    288.88641     272.7218   -0.9871076    3.3456172    16.164601    40.460918 
119336000    267.05129    316.31183    256.65792   -2.0348898    4.7881617     59.65391    40.468073 
119340000    282.50896    339.48535     275.5999   -3.2195366    4.3061347    63.885445    40.482196 
119344000    269.81658    346.32025    256.95502   -2.2876193    3.7538844    89.365225    40.479274 
119348000    276.94198    310.64039    289.96182   -1.7377041    2.6871963    20.678571    40.485578 
119352000    274.34028    305.89167    279.60024   -2.4801616    3.3493735    26.291427    40.501193 
119356000    278.53761    365.78091    272.39345   -4.7955792    3.5725597    93.387456    40.523308 
119360000    273.66322    310.02174    288.77299   -1.9493612     2.260127    21.248751    40.518992 
119364000    273.13935    326.96352    281.79371   -3.3117393    3.1320953    45.169805     40.53436 
119368000    270.10723    320.83985    272.76248   -1.9887729     4.554142    48.077376    40.519567 
119372000    269.55991    318.80072    265.60663    -2.930049    3.5308251    53.194085    40.509127 
119376000    276.28129    336.49922    285.45489   -3.4260521    2.2204318    51.044326    40.493247 
119380000    277.88648    332.99649    284.62015   -2.9931748    2.3390155    48.376336    40.484364 
119384000    264.47102    299.50636    264.74927    -0.211658    3.9626277    34.757087    40.483416 
119388000    280.87983    336.09661    303.32245   -1.1449822    1.6874797    32.774162    40.485272 
119392000     269.2695    317.05817     260.2173   -1.3147666    3.7544914    56.840866    40.475682 
119396000    269.36788    332.82845     275.5874   -2.7124304    2.1530334    57.241052    40.463408 
119400000    273.15469    311.05529    265.65753   -1.7410984    3.8623293    45.397754    40.454115 
119404000    279.03454    332.09393     286.0598   -3.3041186    1.5325327    46.034129     40.45891 
119408000    272.96001    313.38894    288.41338   -2.3647361    1.4683765    24.975564    40.447049 
119412000    279.03439    312.15549    288.19989   -1.6016492    1.6516448    23.955592    40.436766 
119416000    262.21711    302.70326    253.96683   -1.5003937    3.8833176    48.736426    40.437521 
119420000    282.25465    329.42014    276.78181   -3.6453721   0.39136707    52.638325    40.436342 
119424000    272.12834    309.89804    278.46281    -2.780743   0.94393244    31.435225    40.429615 
119428000    280.89421    346.47793    276.98855   -3.3303099    2.5310526    69.489382    40.423065 
119432000    276.84243    341.21475    259.57648   -3.4448058    2.8952189    81.638268    40.423559 
119436000     278.5396    326.22277    262.99893   -2.4217393    1.3910801    63.223845    40.410272 
119440000    274.18455    328.30295    267.40814   -2.8805928    1.3550063    60.894809    40.409216 
119444000    278.72118    316.99162    274.33481   -4.9776787   0.91589066    42.656809    40.385816 
119448000    279.93132    326.44972    275.94055   -4.4889409   0.42512987    50.509173    40.392995 
119452000    273.99914    317.89969    248.96509   -4.5903251    2.0439717    68.934602    40.388308 
119456000    281.92485    338.22523    277.90032   -5.0589468   0.51641969    60.324902    40.404183 
119460000    281.72284     324.0309    254.25501   -3.5608315    2.8310006    69.775889     40.41451 
119464000    282.63696    313.52318    297.59789   -3.0977754    1.0216608    15.925295    40.423624 
119468000    280.46765    330.37364    274.44448   -4.5027801    1.6370399    55.929154    40.421264 
119472000    282.06078    336.95322    271.24978   -3.8645856    3.1616798    65.703445    40.433639 
119476000    273.43805    325.37036    279.43914   -3.9271745    2.7747354    45.931223    40.440568 
119480000    276.27389    318.11348    273.82621   -3.9650796    1.2488541    44.287263    40.421962 
119484000    271.73407    301.60236    276.59923   -2.9232762    2.6454094    25.003126    40.417775 
119488000    282.23383    322.39315    303.30218   -3.3130609   0.31259612     19.09097    40.404388 
119492000    283.05615    343.72686     274.5646   -3.9286108    1.2603847    69.162261    40.396398 
119496000    280.37023    353.15709     280.7886   -4.8397525    2.2003661    72.368496    40.394341 
119500000    274.02785    328.74002    277.77889   -3.4843705    1.7745515     50.96113    40.397698 
119504000    279.34447     325.9823    288.89774   -3.5147073    1.4718415    37.084559    40.398242 
119508000     281.7695    320.74481    304.23593   -2.8463795    1.5183865    16.508877    40.396991 
119512000    276.19164    318.83156    273.95833   -2.3947352    2.7053568     44.87323    40.389755 
119516000    263.92364    310.95245    255.72225   -1.0335458    2.8877293    55.230199    40.384496 
119520000    268.50272    311.92818    253.72712   -2.6735664    2.9774381    58.201058    40.383962 
119524000    270.15907    317.59045    270.62633   -2.4848308     3.457938     46.96412    40.390321 
119528000     273.1574    318.73869    256.74782   -2.3567615    3.0062064    61.990876    40.387144 
119532000    277.21339    328.53529    286.79827   -2.5688475    1.7698156    41.737019    40.395325 
119536000    268.11273    294.50655    272.06316   -1.9138727    2.8727592     22.44339    40.392623 
119540000    266.83629    304.90146    268.45329   -1.7907696     2.110405    36.448168    40.414006 
119544000    274.20695    309.97399     290.6217   -1.3955846    1.0029322    19.352293    40.405698 
119548000    279.13102     319.0519    282.20876   -1.4890932   0.54294783    36.843135    40.401689 
119552000    279.80776    337.26948    281.42088   -2.3694343    1.9542415    55.848603    40.404731 
119556000     283.6127    345.98585    282.48905   -3.9686497    2.3793822    63.496792    40.393798 
119560000    273.23769    313.24934    286.05999   -2.5129682    1.6678204    27.189349    40.391377 
119564000    276.11229    331.12746    271.12476   -2.8383636    2.9594996    60.002691    40.398273 
119568000    275.50633    336.39954    287.97798   -3.5488681   0.84126052    48.421558    40.403325 
119572000    267.29931    299.90595    270.57031    -1.246805    1.5780756    29.335642    40.400189 
119576000     279.7868     303.5019    294.10325   -1.3664222    1.8898588    9.3986461    40.398197 
119580000    274.99726    295.56626    295.88767  -0.28575857   0.87881839  -0.32140468    40.388197 
119584000    273.28476    325.06821    268.47041   -2.5249278    2.7977681    56.597801      40.3819 
119588000    275.14685    310.00468    281.04266    -1.690273    3.0695499    28.962025    40.394727 
119592000    281.97955    332.81907    290.76603   -3.1507701    2.0180447    42.053042    40.405308 
119596000    279.73718    348.45836    292.45508   -2.5079297    1.9614328    56.003275    40.418088 
119600000     276.2245    309.22881    292.94161   -3.1504673    1.4303935    16.287204    40.404628 
119604000    271.56813    303.00491    281.82448   -2.8437362    3.2688729    21.180436    40.417824 
119608000    280.46091    329.06821    267.37727   -4.4043662    3.8858913    61.690947    40.408801 
119612000    270.89709    308.24201    272.00175   -1.5140658    2.6524494    36.240261    40.415896 
119616000     281.0584    324.41327    291.74679   -2.3008192    1.6992305    32.666477    40.402712 
119620000    273.98248    311.05364    275.45733   -2.3673429    1.4991211    35.596311    40.402307 
119624000    280.66423    312.02858    293.32005   -2.1941702     1.905566    18.708529    40.409295 
119628000    274.41888    318.58225    279.11032   -2.3828214    1.3871652    39.471932    40.388992 
119632000    292.53796    346.67881    282.15562   -4.0475819    1.6719909    64.523192    40.399968 
119636000    278.27618    294.31413    276.88647   -1.8731786     2.497848    17.427662    40.399199 
119640000    278.57965    335.14476     269.6918   -3.6960366    2.3641382     65.45296     40.39027 
119644000    272.93467    303.26052    280.93801   -2.4425245   0.75290618    22.322518    40.380079 
119648000    276.62651    312.37501    275.33115   -3.4360737 0.0041039799    37.043866     40.37132 
119652000    282.90954    336.94744    271.90471   -4.2419963    1.0833699    65.042737    40.387967 
119656000    275.43641    318.79613    281.41778   -2.5757369     2.256472    37.378358    40.411872 
119660000    282.02411    319.01191    301.60255   -3.1509894  -0.29414869    17.409359    40.400558 
119664000     285.2646    330.93884    299.04178   -3.7015332    1.2493622    31.897061    40.385235 
119668000    277.61528    315.66634      276.852   -2.2649494    1.9839152    38.814334    40.381247 
119672000    281.87407    331.76289    275.36053    -3.812925    1.4717343    56.402362    40.379257 
119676000    280.45146    322.31521    274.42166   -2.9366167    1.2668239    47.893546    40.376068 
119680000    276.85313    323.52217    267.10512   -2.7383924    2.3717198    56.417046    40.385877 
119684000    277.03291    306.51244    273.84416   -2.3896237    1.9357255    32.668286     40.39173 
119688000    280.86361    322.05778    281.32655    -3.905525    1.6512106    40.731235    40.402771 
119692000    263.08218    299.07937     264.7012    -2.635594    3.7095314    34.378169     40.41632 
119696000    277.96727     322.6124    267.25229   -4.4548968    3.4811955     55.36012    40.415303 
119700000    278.24576    317.45366    287.24788   -2.6346517    1.5738935     30.20578     40.40695 
119704000    278.40743    313.73578     287.2869   -3.9316939   0.99709869    26.448882    40.406953 
119708000    283.49295    334.40523    289.71246   -4.1478075   0.14833126    44.692765    40.398568 
119712000    272.91493    301.14895    270.50546   -1.9372485    1.2391976    30.643493    40.396669 
119716000    283.55795    313.35136    285.86927   -3.2798639    1.4724259     27.48209    40.409363 
119720000     273.2701     302.1652    278.07251   -2.0548073    2.7907074    24.092686    40.398989 
119724000    279.89103     312.3434    283.63357   -2.9364486   0.91477595    28.709826    40.398853 
119728000    278.68297    334.50351    273.26516   -5.6513345    1.2855836    61.238351    40.401301 
119732000    277.18588    325.17899    282.10927   -4.0571325    1.0920156     43.06972    40.407054 
119736000     284.4693    316.85665    290.89778   -3.4455383    1.0180134    25.958875    40.401608 
119740000    290.38081     339.0884    299.85292   -4.7016862   0.19497748    39.235483    40.398109 
119744000    275.83579    306.27895    286.49268   -2.7630269    1.9672408    19.786267    40.408202 
119748000    285.46116    329.82913    285.63523   -4.5768577    1.6018529    44.193901    40.421996 
119752000    280.41085     317.5723    284.05332   -2.4042756   0.73375329    33.518986    40.420032 
119756000    277.32956    326.16543    264.79549   -3.3362375    2.4730713    61.369942    40.422117 
119760000    270.99589    301.65705    258.76275   -2.1661956    2.7962045    42.894303    40.418774 
119764000    287.84092    330.53934    280.11903   -3.4709305    1.3684114    50.420306    40.428872 
119768000    282.03854    315.69076    276.35618    -2.718902    2.3215271    39.334576    40.425932 
119772000    287.28284    346.24958    274.91151   -5.3197768    1.5321382    71.338066    40.420063 
119776000    289.42824    316.63127    306.04344   -4.6121399 -0.022846219    10.587824    40.419428 
119780000    275.39581    332.10868    277.05606   -3.9775934    1.5165326    55.052618     40.41361 
119784000    281.59588    321.17251    288.50566   -1.9438796    1.2467709    32.666853     40.43103 
119788000    274.67945    305.88347    283.11192   -2.9698393    1.8377254    22.771552    40.433581 
119792000    282.45907    309.95601    295.47143   -3.6559766    1.8056097    14.484584    40.415837 
119796000      272.479    327.02185    273.84777    -3.197207    1.6699987     53.17408    40.430376 
119800000    274.46648    329.45721    268.02503   -4.4838705    3.1582745    61.432171    40.441658 
119804000    283.08014    326.66898    274.84595   -3.6888679    2.1608983    51.823028    40.438095 
119808000    280.74341    306.71272     290.0905   -2.9541532   0.15918362    16.622215    40.439251 
119812000    280.58086    309.10793     276.5298   -3.2257781    1.5004449    32.578135    40.426086 
119816000    277.44249    297.47453     297.3407   -2.4101989  0.092406835   0.13383477    40.427778 
119820000    284.63583    334.39096    279.14585   -3.8660586    1.9361305    55.245102    40.423268 
119824000    276.82166    330.42821    254.96054   -3.9936163    1.9014482    75.467679    40.432596 
119828000    279.29378    322.14048    274.35233   -4.1194299    1.7350439    47.788148    40.424467 
119832000    274.35688    312.24243    285.94047   -2.3571211   0.65556389    26.301963    40.419095 
119836000    278.04149    322.33457    277.51168   -4.0747022    1.5316183    44.822891    40.409181 
119840000    284.98391     328.4626    300.37931   -3.7155166   0.79741789    28.083289    40.413689 
119844000    286.91138    327.83541    299.57442   -3.6100028   0.84753596    28.260989    40.417193 
119848000    271.86101    304.08019    260.94626   -1.9915781    2.1217066    43.133935    40.424095 
119852000    275.46986    306.03046    263.78404   -3.4377537    2.9458473     42.24642    40.439153 
119856000    281.29032    331.79354    272.80434   -4.1604533    3.1729744    58.989202    40.441544 
119860000    291.21155    331.00986    303.64312   -4.6858166  0.085925118    27.366739    40.455313 
119864000    279.31665     333.6171    285.79617   -4.6618361    1.3379015    47.820935     40.44612 
119868000    279.54777    323.94505    265.33661   -5.3316907    3.5618613    58.608445    40.447558 
119872000    281.69116    316.61778    296.03499   -5.1411561    1.7329638    20.582788     40.44692 
119876000    283.03334    307.83024    303.81119   -3.6952979   0.62571056    4.0190511    40.454039 
119880000    282.22246    338.99511    271.44675    -5.320193    2.8347534    67.548357    40.455589 
119884000    285.26299    321.24922    283.51894   -3.9719098    2.0912526    37.730277    40.442836 
119888000    278.71955    345.57285    289.08487   -4.6463197 -0.049947984    56.487986    40.442911 
119892000    277.43993    314.29275    258.57433   -5.1124958    3.1554981    55.718421    40.444138 
119896000    275.66215    325.23714    277.31104   -5.2535239    1.8606676    47.926104    40.448399 
119900000    289.11697    340.42877    298.82873   -5.4690394   0.73327064    41.600035     40.44164 
119904000    275.36526     298.6086    296.63565   -4.0500768    1.4155055    1.9729455    40.439809 
119908000    271.49921    315.61198    260.58083   -3.3498885    3.2642182     55.03115    40.447648 
119912000     275.0418    311.88788    274.85926    -4.394258    2.9141751    37.028622    40.452212 
119916000    282.14223    329.51288    265.73948   -6.0733002    3.5969467    63.773401    40.452108 
119920000     281.4036    347.54516    280.83157   -4.8890219    2.7096749    66.713585    40.460754 
119924000    285.75943     317.1959    289.98638   -4.2817444    2.8706714    27.209518    40.459505 
119928000    284.61404    328.14961      286.456   -4.5692659    1.2723862    41.693606    40.457429 
119932000     282.0893     329.8868    289.57333   -3.9481346    1.3724197    40.313475    40.458084 
119936000    283.35583    321.00099    274.16955    -3.654443    1.8326055    46.831444    40.459484 
119940000    284.79102    334.48997    279.02297   -4.8869265    2.5616755    55.467002    40.464271 
119944000    282.92021    325.86364    306.04136   -2.9609725    2.0817822    19.822284    40.460187 
119948000    278.45045     309.8139    281.79719   -3.2885326    1.8727894    28.016712    40.454293 
119952000    277.24764    321.06537    266.89611   -5.2207068    3.2603462    54.169261    40.447345 
119956000    276.15005    322.45652    283.53671   -4.3748143    2.2802518    38.919807    40.451907 
119960000    280.67113    322.33064    283.09253   -4.2341289    2.1352665    39.238107    40.455146 
119964000    271.69534    305.91655    275.94369   -4.0936835    2.3838101    29.972865    40.443455 
119968000    280.41795    313.93537    279.84512   -4.5158757     2.626327    34.090248    40.442304 
119972000    275.71328    316.53606    266.71791   -3.4397144    3.0776563    49.818152    40.448559 
119976000    283.26661    337.31811    287.16603   -3.4076686    2.2560475    50.152083    40.438141 
119980000    284.84583    344.48831      281.991   -4.0434414     2.300905    62.497318    40.435282 
119984000    269.30885    322.13657    272.64932   -3.3501584    3.3050576    49.487247      40.4378 
119988000    281.34204    321.63591    273.09246   -2.7035324    3.7190063    48.543456    40.436891 
119992000     279.5639    310.14215     275.9613   -1.9693148    2.9623665    34.180855    40.431745 
119996000    273.30054    307.51783     282.6369   -2.4808649    2.7490431    24.880925    40.423292 
120000000    278.76415    330.99181    274.63449   -3.7142549    2.6773898    56.357322      40.4263 
120004000    273.60094    302.29605    289.40319   -2.1745131    1.9337315    12.892857    40.417567 
120008000    279.40309    314.70973    284.81887   -2.8583196    2.5419569     29.89086    40.412306 
120012000    273.49681    314.91063    276.06679   -2.8640628    2.1455963    38.843835    40.406348 
120016000    274.27776    324.79035    289.81779   -3.8599549    2.1721146    34.972563    40.395039 
120020000    279.01703    333.24463    271.87385    -3.545864    2.5004153     61.37078    40.386749 
120024000    280.68688    338.27893     272.7658   -3.9371437    4.1474951    65.513134    40.392825 
120028000    274.56209    315.85311    273.37736   -2.7578545    3.2140317    42.475747    40.398183 
120032000    274.63276    319.97858    280.40771   -3.4159955    3.0232299     39.57087    40.396339 
120036000    275.37976    315.53718     299.3071   -2.6468035    1.0404502    16.230086    40.388983 
120040000    267.99244    304.48497    282.36568   -3.4768031    2.3787496    22.119284    40.392601 
120044000     280.8389    324.33935    304.85174   -3.7645296    2.3000255    19.487617    40.395493 
120048000    272.68523    326.18027    267.44427   -3.3274618    3.4294545    58.735993    40.399192 
120052000    275.58916    337.63026    269.96752   -3.9261744    4.4889928    67.662742    40.399848 
120056000    268.49815    300.03412    283.04102   -3.4390857    3.2792339    16.993095    40.404571 
120060000    271.19009    304.05675    286.10488   -2.4098513    3.1018835    17.951875    40.394825 
120064000    279.23821    336.17259     272.0004   -3.6936041    3.4897969    64.172185    40.401792 
120068000    276.30482    312.52972    265.38393   -2.3338278    3.5470585    47.145787    40.411627 
120072000    272.08278    322.95058    283.50034   -3.0513158     2.536705    39.450245    40.406383 
120076000    282.20945    323.98908    288.67298   -3.8570181    1.3288533    35.316093    40.403709 
120080000    285.13344    332.87074    291.05235   -3.6085294   0.76568704    41.818391    40.409257 
120084000    286.28013    343.30374    298.86605   -4.2536924    2.3686898    44.437692    40.414673 
120088000    277.14296    322.99461    294.25997   -3.4908196     1.387305    28.734644    40.407041 
120092000    279.26036    305.85241    298.46399   -2.7109958    2.1057236    7.3884222    40.401772 
120096000    279.39852    311.10739    283.73849   -3.2402915     2.633307    27.368897    40.399085 
120100000    279.90454    339.23087    281.26006   -5.4285683    3.1762277    57.970813     40.40786 
120104000    276.71373    306.19545    278.13599    -2.867847     1.822862    28.059459    40.404186 
120108000    279.92201    306.74014    290.24459   -3.3421428    1.8548525    16.495547    40.408286 
120112000    274.86139    295.27937    297.12166    -3.435843    1.5420763   -1.8422847    40.413978 
120116000    286.42112     339.0935    285.20617   -5.0056355    1.6135749     53.88733    40.426282 
120120000    271.72037    297.90196    269.02387   -2.8048421    3.0710615    28.878083    40.422665 
120124000    274.34452    311.01799    273.03205     -4.17446    2.8845009     37.98594    40.423409 
120128000    270.07372    317.68408    265.47058   -3.3678541    3.6516575    52.213499    40.430385 
120132000    269.90508    286.32597    289.96444   -2.8230023    2.9285513   -3.6384731    40.430573 
120136000    274.96306    311.20864    268.46355    -5.293325    3.3002233    42.745086    40.428915 
120140000    279.30073    323.09815    289.46626    -5.498199    2.3715469    33.631888    40.415994 
120144000     281.8481    346.41423    270.36413    -6.780404    4.2401168    76.050094    40.416854 
120148000    281.02084    323.75016    282.44188   -4.7144878    2.7049101     41.30828     40.39553 
120152000    277.24731    291.16213    284.35649   -4.5200187     2.903845     6.805645     40.40181 
120156000    286.71555    335.87223    275.53136   -5.7188201    3.8425821    60.340872    40.378384 
120160000    274.48606    307.46526    260.93383    -4.542167    2.8298266    46.531431    40.378285 
120164000    285.22037    324.50635    275.16969   -7.4657585    4.0944817     49.33666    40.373682 
120168000    278.77762    313.66012    279.36614   -6.5811959    3.6078061    34.293976    40.375153 
120172000    277.56231    319.17221    277.61301   -4.4868443    3.1192612      41.5592    40.381695 
120176000    269.59327    312.02673    269.78526   -3.6537581     4.744107    42.241475    40.384426 
120180000    284.10132    360.74913    279.91453   -6.6578359     2.940907    80.834599    40.374764 
120184000    277.08871     298.5422    273.49954   -3.2522372    3.7601563    25.042664    40.369891 
120188000    286.25455      329.323    293.45895   -6.0683223    2.8922604    35.864045    40.357873 
120192000    278.28709      306.023    289.71252   -4.4607279    2.5817115    16.310484    40.353391 
120196000    281.90957    339.69319    271.20114   -6.9759191    3.4439736    68.492047    40.355018 
120200000    282.53636    327.39947    271.10262   -6.0158401    4.0896909    56.296851    40.353344 
120204000    275.06332    307.60705    281.83576   -3.3189058    2.9460815    25.771296    40.343939 
120208000    270.84281    292.70909    264.96721   -3.6620309    4.6714445    27.741872    40.332249 
120212000    283.01821    342.92872    273.55223   -3.8937917    4.1683717     69.37649    40.338842 
120216000    268.91425    313.12992     276.3383   -3.3103753    3.6664267    36.791621    40.337949 
120220000    276.82258    318.45011    282.82302   -3.7681667    3.2183329    35.627097    40.333519 
120224000    279.34924    290.08345    315.19493   -2.1547219     1.747661   -25.111475    40.335714 
120228000    274.91297    325.97673    270.13334   -4.6141947    3.6155509    55.843389    40.340256 
120232000    273.19974    319.81299    279.86914   -5.3232825    3.0792566    39.943852    40.338149 
120236000    271.27616    315.92935    286.21183   -4.5296247    3.0194364    29.717517    40.330006 
120240000    274.91075    320.37584    281.87609   -4.9472038    3.9319138     38.49975    40.327024 
120244000    275.98521    330.61025    279.29887   -4.8680804    3.9513938    51.311384     40.31934 
120248000    274.82886    310.52431    272.64315   -3.5402336    2.8741265    37.881165    40.318733 
120252000    272.20656    331.04292    275.44587   -5.5537365    4.1276546     55.59705    40.327929 
120256000    263.70581    293.20387    275.80228   -2.8867369    4.5464158     17.40159    40.321495 
120260000    285.89183    324.82844    301.63629    -3.902616    3.2967973    23.192145    40.309428 
120264000    266.55612    302.56074    272.84333   -3.0416766    4.4858662    29.717407    40.305109 
120268000    274.97576    324.14497     283.9549    -4.193874    3.5720536     40.19008    40.301808 
120272000    275.88347    324.52118     285.7172   -4.1164505    4.5395377    38.803975    40.293632 
120276000    267.23722     307.9533    280.83022   -3.2878552     6.058719     27.12308     40.28712 
120280000    280.81062    319.76666    282.15843    -4.780014    5.2868991    37.608229    40.301718 
120284000    279.01255    314.85553    301.26882   -4.3481793    4.2087205    13.586705    40.305936 
120288000    278.86685     332.3262    286.73642   -5.3670821     4.265498    45.589771    40.315038 
120292000     278.9849    330.43653    280.61438   -6.1263769    4.0637592     49.82215    40.317594 
120296000    280.10363    330.41453    272.22033   -4.1140556    4.9193448    58.194201    40.322062 
120300000    274.48091    316.47461    260.00515   -4.9559976    4.4411107    56.469462     40.32268 
120304000    283.50146    302.17293    308.46554   -3.4368148    2.2666759   -6.2926104    40.322975 
120308000    270.77068    325.08916     258.7917   -4.2313229     4.720603    66.297469    40.325566 
120312000    284.81761     337.8013    310.31026   -5.9238765    3.3918287     27.49104    40.329137 
120316000    277.40323     316.0352    296.38483   -3.7946421    3.1835464    19.650372    40.327111 
120320000    273.47782    300.07534     273.2757   -4.7906634    4.5328807    26.799649     40.33161 
120324000    266.40692    302.74113    271.05688   -4.2468138    4.7500883    31.684247    40.321759 
120328000    280.73465    321.72577    285.37862   -4.2585863    3.5975158     36.34715    40.317659 
120332000    279.07331     337.9361    281.19593   -5.6234646    2.0234473    56.740162    40.312299 
120336000    278.63152    338.66534    277.14209   -5.7875155    2.5399083    61.523251    40.304332 
120340000    276.54129    318.99814     266.4969   -4.8290586    3.5484428    52.501242    40.306519 
120344000    273.74426    315.55351    260.64479   -4.2027734    4.3571634    54.908712    40.308938 
120348000    275.87517    314.05157    273.85921   -4.4101354    3.7634845    40.192355    40.317542 
120352000    277.54791    331.15364    271.80535   -6.0113144    3.1765657     59.34829    40.323192 
120356000    287.46825    350.19459    286.77169   -6.8349182    3.3825417    63.422904    40.332113 
120360000    289.25332    351.72316     284.2193   -6.0608736    4.6146572    67.503861    40.333295 
120364000    279.86602    354.88825     272.6353   -5.0811087    4.2232106    82.252957    40.337175 
120368000    273.47372    306.51746     278.7363   -4.9062915     4.259746    27.781156    40.339372 
120372000    272.27804    306.36264    277.86285   -4.5353529    4.8871558    28.499793    40.345826 
120376000    279.34031    325.60404    288.28745   -4.4916832    4.6727659    37.316597    40.349914 
120380000    275.63353    334.45254    270.52726   -5.2478816    5.2117277    63.925278    40.349796 
120384000    269.15306    310.83311     262.9427   -3.7200189    6.2489967     47.89042    40.350636 
120388000    289.99701    355.52808    300.28557   -6.7853378    4.3152973    55.242516    40.352651 
120392000    271.03366    298.15273     294.2361   -4.0165831    4.0998772     3.916623    40.353146 
120396000    271.37726    323.68457    267.92513   -5.8005708    5.5750374    55.759443     40.34972 
120400000    280.86201    323.68247     294.8473   -5.3525478    4.8236147    28.835175    40.341941 
120404000    282.67586     337.2859    296.36742   -5.8593911    3.8743241    40.918481     40.35091 
120408000    266.12106    320.45695    263.67042   -4.9944105    4.8070648    56.786534    40.355857 
120412000    272.53015    323.48487    255.36087   -5.3421432    5.7750893    68.124002    40.351213 
120416000    271.86901    325.25131    262.54641   -4.7547499    5.2329136    62.704906    40.355512 
120420000    268.17924    306.94988    272.86431   -4.3898331    5.4635166    34.085573    40.364056 
120424000    277.36267    322.00141    298.75617   -4.7830834    4.0030112    23.245246    40.364711 
120428000    283.55743    362.49709    288.75152   -5.9315363    4.2376484    73.745566    40.367885 
120432000    267.83263     312.2078    261.55901   -3.4458002    5.6800722    50.648794    40.367849 
120436000    273.26507    307.24513    286.28872    -3.457216    3.6771722    20.956405     40.36973 
120440000    279.95531    335.50688    268.41845   -5.5738497    4.8627221    67.088431    40.369948 
120444000    272.00586    308.93914    263.95461   -3.8069821     5.369677    44.984528    40.367709 
120448000    268.55461    309.18555     252.7835   -4.2451013    6.6424908    56.402051    40.358855 
120452000    269.99634    303.08177    284.82191   -4.9195212    4.1952181    18.259859    40.362902 
120456000     268.6532    307.07055    282.30824   -4.9284081     6.073419    24.762305    40.364891 
120460000    269.59948    313.69583    277.40163   -5.7176477    6.6393881    36.294205    40.371988 
120464000    279.50977    344.35852    279.23207   -6.1578598     6.700006    65.126445    40.372407 
120468000    269.16323    318.01673    280.37697   -4.4551996    5.7924559    37.639761    40.375777 
120472000    270.54375    302.89885    291.68704   -4.6848618    5.2843522    11.211812    40.369526 
120476000    269.94763    305.92752     271.9525   -5.6970437    6.9856167    33.975014    40.372907 
120480000    263.47218    297.66891    247.17616   -6.3365761    8.2221922    50.492751    40.379074 
120484000    269.53708    298.73295    281.51859   -4.7628949    6.5405364    17.214366    40.373241 
120488000    268.12504    307.32995    279.44035   -3.8717971    6.0093282    27.889602    40.370704 
120492000    277.99183    330.26265    274.81869   -4.7153689     6.185622    55.443961    40.386024 
120496000    266.55091    298.27133    279.88125   -2.7713047    4.4880201    18.390076    40.380975 
120500000    270.01872    317.80813    276.41892   -4.3856377    6.4675902    41.389205    40.373404 
120504000    273.00987    331.61161    270.68321     -5.11464    7.2406212    60.928397    40.378796 
120508000    270.91764    311.00279    287.93525   -4.2758348    5.5224426    23.067531      40.3781 
120512000    275.04641    320.64009    289.14626   -5.3500174    4.2958852    31.493828    40.374203 
120516000    274.57395    324.17098    278.32005   -5.5499634     5.261129    45.850921    40.372147 
120520000    279.83321    362.43399    275.35029   -6.9794295    5.3727777    87.083695    40.383373 
120524000    279.51006    318.08431    298.41674   -5.0065334    4.9942465    19.667576    40.384115 
120528000    275.91889    330.18336    265.16134   -5.5006237    6.9474962    65.022021    40.392523 
120532000     273.6002    318.64842    281.40821   -4.8469672    5.9276143    37.240218    40.388691 
120536000    280.65471    323.02452     282.2417   -5.5652312    5.5850425    40.782827    40.382209 
120540000    274.04253    323.38834    265.50185   -4.4323495    6.3155315    57.886487    40.372753 
120544000     288.5489     343.2836    306.73172   -7.8046886    4.5216704     36.55188    40.379757 
120548000    276.15354    326.79803    282.53442   -5.6947948    5.3527463    44.263611    40.367515 
120552000    271.66513     323.1307    266.67142   -6.4473908    6.2716345     56.45928    40.363024 
120556000    270.72822    318.85173    254.31658   -5.8794162    7.7150093    64.535157    40.360798 
120560000    271.74062    305.04332    284.38232   -5.8106963    5.6480839    20.660996    40.363089 
120564000    278.24543    308.99993    284.04521   -5.0671797    5.6390126    24.954717    40.362497 
120568000    276.57991    307.97718    279.05362   -5.3938881    6.2082874     28.92356    40.349767 
120572000    277.22055    324.84171    286.30328   -5.1710719    5.8642721    38.538432     40.34976 
120576000    278.72394    315.46828    296.13056   -5.3528822    4.8774149    19.337721    40.345495 
120580000    275.86091    332.52689    265.89448   -7.3308324     5.919681    66.632409    40.351772 
120584000    277.63077    332.32411    282.77095   -6.0129518    4.6617664    49.553165    40.346675 
120588000    288.14108    347.18966    294.29336   -6.9293436    5.2572057    52.896301    40.339252 
120592000     282.7556    343.51038      282.174   -7.5474625    5.0459158    61.336382    40.336665 
[...]
133712000     276.6912     325.5821    285.00783   -27.835297    27.903017    40.574267    40.095301 
133716000    273.05051    319.07136     299.7463   -27.263846    27.664991    19.325065    40.095814 
133720000     269.0529    321.95068    277.91075   -28.165785    29.023972    44.039935    40.095632 
133724000    269.24746    333.91959    258.34814   -27.831076    29.997032    75.571447    40.095123 
133728000    273.86037    347.65846     279.9762    -29.21782    28.468317    67.682263    40.094402 
133732000    278.47794    331.34467    281.36201   -28.771273    27.782313    49.982659    40.093597 
133736000    286.27972    351.66885    311.06547   -30.049606    27.705815    40.603383    40.093647 
133740000    266.85536    316.76108    268.35973   -27.944396    29.630244    48.401355     40.09323 
133744000    269.86907    321.73698    283.11948   -27.321379    29.276503    38.617495     40.09291 
133748000    269.55231    334.54799    278.61611   -28.087736    29.610145    55.931879    40.093054 
133752000    270.08739    309.78937    296.51038   -28.124153    28.039907    13.278995    40.092505 
133756000    269.63334    325.63217    271.59878   -27.726356    29.530924    54.033387    40.093033 
133760000    273.93291    333.67345    281.01394   -28.837217    29.769993    52.659508    40.092169 
133764000     272.5449    321.68328    278.26542     -27.3966    29.546148    43.417852    40.093006 
133768000    269.51276    318.26087    278.34522   -27.126867     29.54595     39.91565    40.094245 
133772000    277.64056    332.32745    295.16392   -28.459997    28.836674    37.163529    40.094426 
133776000    271.14468    336.15458    271.51013   -28.009459    29.230259    64.644446    40.094542 
133780000    275.45676    325.31081    280.01633    -28.38853    29.656597    45.294477    40.095276 
133784000    262.68006     287.7335    293.08517   -26.718886    29.360476   -5.3516711    40.095017 
133788000    273.50044    318.55467    296.19368   -27.032667    28.928787    22.360992    40.095511 
133792000    269.88989    317.87837    280.06899   -29.100195    29.178968    37.809384    40.096202 
133796000    265.68375    309.98313    246.99313   -28.373865    31.987659        62.99    40.096618 
133800000    279.75851    330.86127    284.84903   -28.922755    29.468259    46.012243    40.097269 
133804000     278.9442    296.62883    301.67426   -27.978479    27.526371   -5.0454336    40.096662 
133808000    273.19714    322.99092    269.65793   -29.881571    29.624161     53.33299    40.097546 
133812000    274.61631    332.79519    266.93087   -29.483853    30.081788    65.864322    40.098663 
133816000    265.86383    314.69943    259.91247   -29.696031    31.495754    54.786961    40.098969 
133820000    268.98075    308.67909    275.81307   -29.250958    30.399688    32.866024    40.098283 
133824000    278.23754    325.91697    283.89397   -28.823901    30.206242    42.023004    40.098078 
133828000    278.54912    326.66444    288.51863   -30.419085    29.410508    38.145806    40.096421 
133832000     272.6924    344.43933    260.85342   -29.566523     31.07043    83.585907    40.096368 
133836000    275.53998    325.96896    286.45303   -28.855376    30.078058    39.515937    40.096068 
133840000    286.91463    342.18435    309.46651   -30.282898    27.904622    32.717845    40.097616 
133844000    274.66096    313.60789    282.08539   -28.457676     29.22643    31.522497    40.097307 
133848000    276.45946    330.95983    274.47803   -29.853693    29.670401    56.481797    40.097938 
133852000    272.15318    309.97181    303.78525   -27.294781    28.136994    6.1865673    40.097883 
133856000    274.66195    304.96317    289.09661   -27.924424    29.562027    15.866557    40.097493 
133860000    279.23406    323.34231    288.98706   -29.241206    30.140845    34.355254     40.09648 
133864000     274.5276    313.09006    296.63975   -29.193516    28.105121     16.45031    40.096601 
133868000    263.78877    312.05478     265.4163   -29.314054    30.169974    46.638478    40.095408 
133872000    282.54975    327.43665    283.02855   -30.214121     29.75011    44.408096    40.094901 
133876000    267.76878    320.82922    267.11922    -29.11811    29.247424        53.71    40.095455 
133880000    276.20109    304.38742    284.07933   -28.964374    28.986345    20.308091      40.0956 
133884000    273.55963    337.48704     269.4521    -29.72686    29.596626    68.034944    40.096507 
133888000    280.05494    307.46316    295.64897   -28.805415     28.17201    11.814182    40.095695 
133892000    276.58165    340.32222    289.61717   -30.162292    28.563642    50.705049    40.094497 
133896000    278.22989    308.45872    281.79365   -29.820299     28.37676    26.665074    40.093181 
133900000    275.30105    338.68878    281.25036   -31.853071    29.052682    57.438427    40.094162 
133904000    271.86784     308.0288    270.13443   -29.353834     28.85508    37.894365    40.093783 
133908000     284.3428    345.87799    293.45731   -31.813417    28.041015    52.420687    40.093545 
133912000    273.22778    328.71514     281.2474   -29.951332    28.903666    47.467748    40.093231 
133916000    277.02963    335.60761    275.24548    -31.26947    30.028712    60.362122    40.093891 
133920000    265.30291    284.20891    274.64011   -28.133776    29.869433    9.5688002    40.094428 
133924000    280.25245    333.86625    278.12767   -31.066813    29.592542     55.73858    40.094159 
133928000    275.39957    307.04341    277.38415   -29.941374    29.804634    29.659265    40.094582 
133932000    268.32116    309.99493    274.11677   -29.969668    28.863982    35.878153    40.094758 
133936000    272.41267    301.91106    268.97041   -28.185666    29.168405    32.940647    40.096183 
133940000    278.17119    311.69932    297.33021   -29.579924    27.867015    14.369114    40.096674 
133944000    287.74638    334.68519    297.74266    -31.20903    28.073137    36.942525    40.097144 
133948000    275.42031    324.74865    292.19867    -29.61651    29.071109    32.549982    40.096259 
133952000    281.11044    332.15145     290.3813   -29.747428     29.14003     41.77015    40.095954 
133956000    276.78397    304.41393    293.40511   -27.663708    28.061923     11.00882    40.095868 
133960000    269.79479    319.07505    281.09418   -29.968418    29.799474    37.980868    40.095968 
133964000    282.41457    313.18535     304.4767   -29.220767    28.351448    8.7086522    40.095246 
133968000    267.38797    319.21356     276.5036   -28.609711    29.622393    42.709962    40.095494 
133972000    274.44334    325.27444    293.51423   -29.932098    29.284943    31.760205    40.094969 
133976000    276.46302    313.26644    280.79679   -28.730842    29.383376    32.469643    40.095008 
133980000    274.92633      302.706    288.47659   -28.202725    29.747528    14.229409    40.094266 
133984000    268.95983    311.43359    273.06112   -28.275503    30.734985    38.372464    40.093327 
133988000    275.60954    341.51402    269.02071   -29.855473    30.793112    72.493305     40.09488 
133992000     277.1577    329.65067    287.32497   -30.046925    28.743175    42.325703     40.09431 
133996000    275.60931    335.77536    258.65012   -30.433279    30.754069    77.125236    40.093459 
134000000     276.0393    320.28904    294.63986   -28.852619    28.798868    25.649181    40.092731 
134004000    273.24777    321.90648    278.26876   -28.985087    29.912551    43.637722    40.091866 
134008000    273.01773     328.2421    277.97642   -29.741081    29.502958    50.265675    40.092319 
134012000    276.71504    318.17797    283.89809   -28.765653    30.022982    34.279878    40.094011 
134016000    279.05762    338.95704      287.469   -30.703294    29.216917    51.488037    40.093258 
134020000    281.37952    324.84825    281.37322   -28.865197      28.7666    43.475035    40.094018 
134024000    267.55641    318.88778    260.40372   -29.779251    30.550364    58.484054    40.095305 
134028000    275.54153    316.55633    290.07887   -28.262241    28.870491    26.477466    40.095734 
134032000    275.44843    313.33241    270.78589   -27.960187    30.609863    42.546519    40.095493 
134036000    276.75394    312.62853    278.78189   -28.435886    30.638766    33.846642      40.0958 
134040000    274.71926    317.78164    270.73158   -29.658012    30.441745    47.050054    40.096445 
134044000    268.47492    317.88107    274.64619   -29.230694    30.323113    43.234879    40.096183 
134048000    269.63394    307.38323    278.22254   -27.981182    30.129628    29.160689    40.094696 
134052000    275.24191    328.80581    276.40285   -30.162258    30.205222    52.402955       40.095 
134056000    272.14311    327.89231    273.52876   -29.745201    29.569262    54.363544    40.093205 
134060000     258.1994    294.97052    259.36647   -28.960416     30.47983    35.604052    40.091843 
134064000    270.25158    319.69803     284.4156   -28.501718    29.994542    35.282435    40.090814 
134068000    268.28289    314.62421     280.8714   -28.879268    29.499657    33.752814    40.089919 
134072000    279.28279    326.40029    289.08008   -28.977844    30.097148    37.320213    40.089752 
134076000    277.76729    332.66834    275.48075   -28.346756    31.554427    57.187594    40.089428 
134080000    265.96171    307.23521    278.25871    -28.79566    30.411304    28.976498    40.089323 
134084000    273.26013    320.65737    275.29917    -28.71553     30.04024    45.358204    40.088581 
134088000    278.66382    330.88361     289.0646   -30.472659    30.009743    41.819011    40.087633 
134092000    276.00829    325.86134    288.04699   -29.371057     29.67531     37.81435     40.08802 
134096000      274.025    317.30744    295.30732   -28.096631    28.731201    22.000116    40.087152 
134100000    284.46023    346.49255    293.14018    -30.89461    31.101951    53.352371    40.086513 
134104000    273.55121     335.7598    274.08988   -29.435501    31.932398    61.669925    40.085715 
134108000    282.77474    355.31445    276.14956   -31.565938    30.569562     79.16489    40.086188 
134112000    272.50257    331.70609    274.34368   -31.570356     30.64964    57.362408    40.086817 
134116000    280.41817    346.00759    290.93562   -30.399167     29.17131    55.071971    40.086706 
134120000     270.0115    322.25057    272.79184    -29.72859    30.136011     49.45873    40.086219 
134124000    277.23172    315.58732    301.48696   -29.906707    29.044757    14.100357     40.08535 
134128000    280.82809    322.97807    278.57066   -29.797033    29.763122    44.407415    40.083551 
134132000    278.90677    336.58876    288.94474   -31.154985    29.315897     47.64402    40.082509 
134136000    271.47943    325.25507    269.18222   -30.776809    31.906632    56.072853    40.082603 
134140000     276.1987    338.60089     283.8923   -31.382435    30.848532    54.708592    40.082801 
134144000    269.74213    330.66137    261.07772    -31.28537    32.140415    69.583653    40.083654 
134148000    264.04901    315.89297    266.24974   -30.303677    31.053816    49.643233    40.084273 
134152000    282.91039    337.79713    292.61402   -31.109522    29.370577    45.183116    40.084463 
134156000    272.42577    323.41704    269.17431   -29.455115    30.372525     54.24273    40.084739 
134160000    268.87202    303.61489    298.27297    -28.53289    29.193833    5.3419124    40.084781 
134164000    275.21815    326.08245     287.1867   -29.118643    30.068026    38.895747    40.086311 
134168000    269.85417    326.62065    284.15448   -29.787959    31.266589     42.46617     40.08724 
134172000    269.20375     300.5827    280.52829   -28.550346    31.524872    20.054411    40.086639 
134176000    274.68575    323.27962    276.61903   -30.471645     31.38765     46.66059    40.087942 
134180000    266.89396    293.51972    290.50154   -28.684623    30.500113    3.0181761     40.08763 
134184000    272.70272    329.87499    273.33465   -29.368684    31.791358    56.540343    40.087072 
134188000      281.972    335.88932    294.64956   -29.365367    30.945866    41.239759     40.08694 
134192000    268.95979    308.91593    273.99084   -29.238551    31.433244    34.925087    40.086797 
134196000    277.05257     333.6726    292.64042   -29.979946    29.451544    41.032176    40.086051 
134200000    277.83598    343.46017    284.55268    -31.19101    31.485771    58.907493    40.085782 
134204000    257.77297     310.9172    264.57896   -29.260425    32.729359    46.338238     40.08753 
134208000    269.56624    337.46443    285.13717   -29.499775    31.118992    52.327261    40.086465 
134212000    269.78263    320.90719    275.02452   -29.398513    32.080926    45.882671    40.088043 
134216000    272.03157    309.46033    281.97934   -29.235029        31.29    27.480996    40.088418 
134220000    273.13607    333.94219    272.04802   -31.229673    32.885092     61.89418    40.088886 
134224000    277.42529    314.29935    278.15355   -30.262806    31.703118    36.145791    40.089856 
134228000    273.13489    325.55229    283.13841   -30.693342    31.259963    42.413886    40.090737 
134232000    272.91974    316.96055    279.62288    -30.30425     31.06134    37.337671    40.090519 
134236000    273.34277    319.94172    289.55247   -30.862017    31.117646    30.389244    40.090337 
134240000    267.92023    300.86491      279.689   -29.402156    31.987313    21.175906    40.089839 
134244000    265.87717    314.65076    274.39585   -30.409978    32.879913    40.254915    40.089207 
134248000    261.55635    304.80432    262.84138    -30.09027    33.123082    41.962942    40.089193 
134252000    273.12334    322.43431    279.56752   -29.600835    32.288264    42.866787    40.087903 
134256000    271.06568    337.19938    289.07497   -30.175021    30.485828    48.124417    40.087266 
134260000    280.94941     323.5639    299.09561   -29.320224    30.567518    24.468291    40.086469 
134264000    264.19101    297.16497    278.26047   -28.749962    31.943454    18.904497    40.086236 
134268000    274.85144    335.77433    271.17421   -31.520214    31.697892    64.600125    40.086833 
134272000    275.10602    329.94019    276.13237   -31.870416    31.029159     53.80782    40.086272 
134276000    275.33541     329.4238    281.52631   -30.292995    30.993281    47.897495     40.08643 
134280000    277.20768    315.94601    290.38784   -30.250105    30.207741    25.558169    40.086401 
134284000    272.00358    311.76436    286.65634    -29.56382    30.012237    25.108024    40.087542 
134288000    269.29184    323.77204    269.87078   -29.972476    31.130912    53.901259    40.087395 
134292000     270.2526    313.27142    260.85779   -29.915596    31.903226     52.41363     40.08765 
134296000     269.8691     320.0045    278.10637   -30.913693    30.484305    41.898126    40.088239 
134300000    271.07284    309.47251    295.97573   -28.234132    29.965104    13.496784    40.088423 
134304000    273.96486     307.1735    294.94091   -29.707874    29.944067    12.232589    40.088055 
134308000    263.82304    308.47531    262.10326    -28.81566     32.25683     46.37205    40.087284 
134312000    265.11666    283.77849    295.85009   -28.093063    30.207037   -12.071603    40.086345 
134316000     273.0519     297.3477    287.51019   -28.135581    28.844315    9.8375043    40.085584 
134320000    278.07551    334.37385    263.94269   -31.492823    31.046192     70.43116    40.085107 
134324000    276.45973    331.09377    279.39997   -31.402354    31.456936    51.693805    40.085002 
134328000    273.15955    316.30303    275.74717   -30.488485    31.020312    40.555863    40.085008 
134332000    274.99207    332.06372    283.56377   -31.643009    31.695822    48.499952    40.085505 
134336000    272.36103    328.43999    259.55959   -30.936103    31.906154    68.880402    40.085645 
134340000    274.98661    314.66719     287.0616   -30.402525    29.876936     27.60559    40.086223 
134344000     275.1955    326.36115     288.5678    -30.34345    30.504681    37.793354    40.086786 
134348000    265.91269    328.15029    275.28887   -30.256515    31.601417    52.861414    40.085866 
134352000    266.12385    319.79298    271.98902   -29.688059    32.780172    47.803966    40.084739 
134356000    272.16019    320.95824    287.35207   -31.203456    30.937442    33.606173    40.085508 
134360000     268.3706    308.64294     255.6536    -30.61039    32.319239    52.989342     40.08446 
134364000    285.36678    336.86636    314.56801    -31.21481     30.19669    22.298354    40.083347 
134368000     275.1134     308.5395    288.52033   -30.834339    30.942016    20.019174    40.083591 
134372000     283.2236    333.50652    282.34479   -32.933502    32.175469    51.161731    40.082759 
134376000    268.83186    308.16178    286.41382   -31.222694     31.36822    21.747955    40.083155 
134380000    272.97332    340.08948    281.90532   -33.083988    31.826071     58.18416    40.083097 
134384000    276.35252    316.03291    285.53631   -29.749773    32.234236    30.496597    40.083486 
134388000    273.40969    316.00634    288.44809   -29.860523    31.902214    27.558252    40.083508 
134392000    267.32488    298.88086     288.3146   -29.357134    31.966457    10.566256    40.082224 
134396000    275.09639    330.26381    285.38315   -32.487759    29.986416    44.880664    40.082374 
134400000     276.1851    331.52628    302.55981   -31.505358    30.116618    28.966469    40.082229 
134401000    273.80056    319.07772    282.72778    -30.97557    31.273862    36.349942    40.082229 
Loop time of 21295.9 on 4 procs for 16000000 steps with 1498 atoms

Performance: 16.228 ns/day, 1.479 hours/ns, 751.318 timesteps/s
99.6% CPU use with 4 MPI tasks x no OpenMP threads

MPI task timing breakdown:
Section |  min time  |  avg time  |  max time  |%varavg| %total
---------------------------------------------------------------
Pair    | 10629      | 14707      | 18889      |3303.2 | 69.06
Bond    | 64.99      | 102.41     | 137.79     | 347.1 |  0.48
Neigh   | 117.61     | 117.66     | 117.69     |   0.3 |  0.55
Comm    | 276.94     | 4215.5     | 8232.8     |6043.7 | 19.80
Output  | 7.6879     | 7.7166     | 7.8024     |   1.8 |  0.04
Modify  | 1133.8     | 1650.1     | 2196.2     | 969.7 |  7.75
Other   |            | 494.9      |            |       |  2.32

Nlocal:    374.5 ave 714 max 35 min
Histogram: 2 0 0 0 0 0 0 0 0 2
Nghost:    2373.25 ave 4252 max 496 min
Histogram: 2 0 0 0 0 0 0 0 0 2
Neighs:    13084 ave 25898 max 312 min
Histogram: 2 0 0 0 0 0 0 0 0 2

Total # of neighbors = 52336
Ave neighs/atom = 34.9372
Ave special neighs/atom = 0.518024
Neighbor list builds = 28701
Dangerous builds = 0

write_restart FINALCONFIG
WARNING: Using a manybody potential with bonds/angles/dihedrals and special_bond exclusions (../pair.cpp:218)
Neighbor list info ...
  update every 1 steps, delay 0 steps, check yes
  max neighbors/atom: 2000, page size: 100000
  master list distance cutoff = 16
  ghost atom cutoff = 16
  binsize = 8, bins = 3 3 23
  4 neighbor lists, perpetual/occasional/extra = 4 0 0
  (1) pair lj/cut, perpetual, skip from (4)
      attributes: half, newton on
      pair build: skip
      stencil: none
      bin: none
  (2) pair morse, perpetual, skip from (4)
      attributes: half, newton on
      pair build: skip
      stencil: none
      bin: none
  (3) pair eam, perpetual, skip from (4)
      attributes: half, newton on
      pair build: skip
      stencil: none
      bin: none
  (4) neighbor class addition, perpetual
      attributes: half, newton on
      pair build: half/bin/newton
      stencil: half/bin/3d/newton
      bin: standard

#and everyone lived happily ever after, THE END
Total wall time: 6:12:43
