LAMMPS (16 Mar 2018)
#lammps script for united atom polymer simulation (full-scale run)

# 1. INITIALIZATION
#allows pair, bond, bending and dihedral interactions
atom_style molecular

  # periodic (video game) boundaries in all cartesian directions
boundary p p s

  # uses real units (instead of units based on pair potential parameters).  List of units used in manual
units metal

###########
# 2. ATOM DEFINITION
##########

   ##
   # Read in data from starting configuration file
   ##

#read_data lammps-AT-config

 #use to restart
read_restart RESTART
  orthogonal box = (0 0 -29.1214) to (20 20 152.979)
  1 by 1 by 4 MPI processor grid
  1498 atoms
  197 bonds
  96 angles
  95 dihedrals
  2 = max # of 1-2 neighbors
  2 = max # of 1-3 neighbors
  4 = max # of 1-4 neighbors
  6 = max # of special neighbors

   ##
   # Specify the nature of the bond interactions
   ##

bond_style harmonic
bond_coeff 1 19.51 1.54
bond_coeff 2 22.45 1.82
bond_coeff 3 10000.0 2.0
special_bonds lj 0.0 0.0 0.0 angle no dihedral no

angle_style harmonic
angle_coeff 1 2.683 114.00
angle_coeff 2 2.683 114.40

dihedral_style opls
dihedral_coeff * 0.06071 -0.011743 0.1363628 0.0

mass  1   14.00
mass  2   32.06
mass  3  196.97
mass  4  196.97


pair_style hybrid lj/cut 14.0 morse 14.0 eam
pair_coeff 1 1 lj/cut 0.00395 3.95 14.0
pair_coeff 2 2 lj/cut 0.01594 3.62 14.0
pair_coeff 3 3 eam Au_u3.eam
Reading potential file Au_u3.eam with DATE: 2007-06-11
pair_coeff 4 4 eam Au_u3.eam
pair_coeff 1 2 lj/cut 0.0000 3.785 14.0
pair_coeff 1 3 lj/cut 0.00258 3.44 14.0
pair_coeff 1 4 lj/cut 0.00 3.44 14.0
pair_coeff 2 3 morse 0.879 1.47 2.7 14.0
pair_coeff 2 4 morse 0.000 1.47 2.7 14.0
pair_coeff 3 4 lj/cut 0.00 2.934 14.0


group freeze type 4
100 atoms in group freeze
fix startend freeze setforce 0.0 0.0 0.0



################
# 3.  Simulation Settings
###############

neighbor        2.0 bin
neigh_modify    every 1 delay 0 check yes



# Define some variables
variable Lx          equal xhi-xlo   # Ang
variable Ly          equal yhi-ylo   # Ang
variable Lz          equal zhi-zlo   # Ang

variable dz          equal ${Lz}/30  # Ang
variable dz          equal 182.100820164033/30  

variable zzlo        equal zlo  # Ang
variable zzhi        equal zhi  # Ang
variable vol         equal ${Lx}*${Ly}*${Lz}  # Ang^3
variable vol         equal 20*${Ly}*${Lz}  
variable vol         equal 20*20*${Lz}  
variable vol         equal 20*20*182.100820164033  
variable TEMP        equal 300.00 # K
variable TThi        equal 320.00 # K
variable TTlo        equal 280.00 # K
variable dt          equal 0.00025 # ps

timestep     ${dt}
timestep     0.00025

variable zlo1      equal -26.0
variable zlo2      equal -11.0
variable zhi1      equal 135.0
variable zhi2      equal 150.0

# heat layers

region          hot  block  INF INF INF INF ${zlo1} ${zlo2}
region          hot  block  INF INF INF INF -26 ${zlo2}
region          hot  block  INF INF INF INF -26 -11
region          cold block INF INF INF INF ${zhi1} ${zhi2}
region          cold block INF INF INF INF 135 ${zhi2}
region          cold block INF INF INF INF 135 150
compute         Thot all temp/region hot
compute         Tcold all temp/region cold


# Second Equilibration
fix             1 all nve
fix             hot all langevin ${TThi} ${TThi}  0.005 59804  tally yes
fix             hot all langevin 320 ${TThi}  0.005 59804  tally yes
fix             hot all langevin 320 320  0.005 59804  tally yes
fix             cold all langevin ${TTlo} ${TTlo} 0.005 287859 tally yes
fix             cold all langevin 280 ${TTlo} 0.005 287859 tally yes
fix             cold all langevin 280 280 0.005 287859 tally yes
fix_modify      hot temp Thot
fix_modify      cold temp Tcold

variable        tdiff equal c_Thot-c_Tcold
thermo_style    custom step c_Thot c_Tcold f_hot f_cold v_tdiff
thermo            4000
run             800000
WARNING: Using a manybody potential with bonds/angles/dihedrals and special_bond exclusions (../pair.cpp:218)
Unused restart file peratom fix info:
  fix style: STORE, fix ID: layers_COMPUTE_STORE
Neighbor list info ...
  update every 1 steps, delay 0 steps, check yes
  max neighbors/atom: 2000, page size: 100000
  master list distance cutoff = 16
  ghost atom cutoff = 16
  binsize = 8, bins = 3 3 23
  4 neighbor lists, perpetual/occasional/extra = 4 0 0
  (1) pair lj/cut, perpetual, skip from (4)
      attributes: half, newton on
      pair build: skip
      stencil: none
      bin: none
  (2) pair morse, perpetual, skip from (4)
      attributes: half, newton on
      pair build: skip
      stencil: none
      bin: none
  (3) pair eam, perpetual, skip from (4)
      attributes: half, newton on
      pair build: skip
      stencil: none
      bin: none
  (4) neighbor class addition, perpetual
      attributes: half, newton on
      pair build: half/bin/newton
      stencil: half/bin/3d/newton
      bin: standard
Per MPI rank memory allocation (min/avg/max) = 10.93 | 11.62 | 12.32 Mbytes
Step c_Thot c_Tcold f_hot f_cold v_tdiff 
151201000    317.37232    298.78283           -0           -0    18.589495 
151204000    331.21098    256.88152  -0.97068468    2.5695003     74.32946 
151208000    334.33205    259.19056   -1.0025697    2.3932952    75.141494 
151212000    323.07492    292.57745  -0.78894183   0.38871778    30.497468 
151216000    307.33146    276.59329   0.59959794   0.38931474    30.738177 
151220000    307.19016    294.97952   0.41790978  -0.33986899    12.210644 
151224000     323.4799    264.57389   -1.3226909    0.5388685    58.906004 
151228000     332.9239    280.52279    -1.460752  -0.15213176    52.401108 
151232000    336.21213    284.88858   -1.5958499  -0.67386107    51.323554 
151236000    340.66586     266.6498   -1.1245967    1.9857845    74.016054 
151240000    329.23698    268.30529   -1.0290925    2.2117133    60.931685 
151244000    315.80914    282.57745   -1.1299447    1.7587846    33.231686 
151248000    336.11282    294.97152   -1.1732868    0.3482103    41.141303 
151252000    328.95072    272.20831   -1.2180903    0.3700672    56.742419 
151256000    303.44175    268.94115  -0.20098759   0.91927625    34.500602 
151260000    318.53302    268.01954  -0.37749003 -0.078585198    50.513484 
151264000    324.06786     302.6062   -1.5914819  -0.96904267    21.461663 
151268000    317.60006    272.45044   -1.0261075    1.9171879     45.14962 
151272000    328.12129    281.41193   -1.5067014  -0.52334995     46.70936 
151276000    330.98844    259.98137   -1.5508774    1.5084626    71.007071 
151280000    306.69409    276.68201  -0.36779761   0.21692948    30.012084 
151284000    324.78598    271.98233   -2.0653132     0.871046    52.803643 
151288000     336.5723    268.43478   -2.1123363   0.58820214    68.137525 
151292000    304.69101    285.44885  0.040091037  0.023248061    19.242164 
151296000     312.1668    282.66679   -1.3765709  -0.15933918    29.500014 
151300000    322.04891    297.49873  -0.45576177  0.072694346    24.550179 
151304000    308.92921    280.14735  -0.33496049   0.10164409    28.781855 
151308000    338.34455     302.5376  -0.71678775  -0.95080153    35.806949 
151312000    333.68103    263.45283  -0.25123798   0.18155704    70.228201 
151316000     329.7109    289.89788   -1.5264373   -1.2396695    39.813026 
151320000    316.25815    273.21866  -0.40167279   0.86677818    43.039484 
151324000    291.73797    274.36396   0.25916567  0.097414913    17.374019 
151328000    292.30123    288.05735    1.2502819   -0.3341067    4.2438814 
151332000    332.95141    278.91043   -1.4826787  -0.81381178    54.040981 
151336000    325.27862    291.93367   -1.1889885   -1.0899892    33.344953 
151340000    310.65403    294.45689  -0.58531669   -1.8060191    16.197143 
151344000    340.83205    289.27234   -1.7151561   -1.3504303    51.559716 
151348000    329.91174    269.56779   -1.5176739  -0.53515962    60.343952 
151352000    320.22491    256.41059   0.59278205   0.87777513    63.814314 
151356000    304.08934    266.60797  -0.16343315   0.64962291    37.481379 
151360000    325.94543    284.77424   0.54895302 0.0086105872    41.171187 
151364000    314.26874    278.72771    1.6064988    1.0256095     35.54103 
151368000     323.4609    284.42063  -0.69232342   0.29953219    39.040274 
151372000    337.32756     261.9143  -0.54425869   0.95374097    75.413256 
151376000    302.51318    278.08186    1.3801263   0.34072788    24.431317 
151380000    297.97738    281.79642   0.12787342   -0.5092709    16.180954 
151384000    329.88825    279.94879  -0.58305505   0.18664823    49.939466 
151388000    316.11802    295.13617   0.55235401  -0.13607577    20.981846 
151392000    316.62419    281.15515  -0.25664197   0.40933346    35.469039 
151396000    358.06394    272.96158   -3.8747638  -0.93443105    85.102358 
151400000    305.02406     269.7617  -0.62767078   0.11056472    35.262366 
151404000    291.18719    278.34881    1.0340181   0.38671305    12.838385 
151408000     327.7438    285.96873    -2.061809  -0.13660199     41.77507 
151412000    334.49295     270.7995   -2.5314067   0.12442452    63.693453 
151416000    323.91696    264.17705   -2.8107745   0.40956468    59.739914 
151420000    303.11495    270.89344   -2.2757667  0.086406153    32.221511 
151424000    334.26143    294.60257   -2.9693404  -0.31094909    39.658857 
151428000    322.20472    281.76966    -2.593546   0.90947078    40.435066 
151432000    336.57207    240.85493   -2.8288476    2.4028023    95.717137 
151436000    307.05336    261.54577  -0.94070963   0.99752397    45.507591 
151440000    302.55259    283.00169  0.035793431   0.56500117    19.550901 
151444000    312.87297     258.8448  -0.71018439    1.8376826    54.028171 
151448000    341.81782    278.41025    -2.628862    1.0640382    63.407573 
151452000    315.19963    274.05513   -1.5333165    1.4784771    41.144505 
151456000    342.23157     262.8537   -2.8275866    1.7324181    79.377863 
151460000    339.27001    286.67768   -3.9281353   0.58599602    52.592331 
151464000    334.30769    291.84632   -3.6898959  -0.70097399    42.461364 
151468000    292.88913    299.18693   -2.1325876  -0.59306183   -6.2978012 
151472000    321.37368    279.77659   -2.5349028   0.83915569    41.597091 
151476000    307.20741    277.05722   -1.2026923   0.41910423     30.15019 
151480000    338.15234    275.84268   -3.6296565    1.1316891    62.309654 
151484000    317.98343    285.73255   -2.2156214  -0.56375699    32.250873 
151488000    319.81114    256.68166   -1.4418773   0.36260865    63.129473 
151492000    353.42395     282.3201   -3.4583886  -0.85966711    71.103857 
151496000    315.69372    280.56566   -1.9929457   0.46198635    35.128053 
151500000    326.04002    290.57988   -2.0011434   -1.4763278    35.460138 
151504000    300.70827    282.27733    -1.114739   -1.1470916    18.430939 
151508000    316.89615    267.14786   -2.9345996 -0.055053499    49.748282 
151512000     325.6691    284.10992   -3.7777991  -0.25398811    41.559181 
151516000    343.16913    266.75232   -3.8162395     1.518146    76.416817 
151520000    322.40777    273.06616   -3.0495997    1.3868979    49.341608 
151524000    311.86399    282.22095   -2.0030076  -0.59595997    29.643033 
151528000    332.73526    265.97875   -3.8065366   0.92709311    66.756503 
151532000    322.26435    289.76221   -3.4128103  -0.18901095    32.502135 
151536000    328.60837    291.55887   -2.9648245   0.70059874    37.049502 
151540000    310.03209     291.6067   -3.0098652   -0.1179747    18.425381 
151544000     314.5345    289.53296   -2.8386936   0.84164202    25.001534 
151548000    325.87311    283.84398   -2.2196932    1.4916208    42.029128 
151552000    328.14291    284.14652   -3.2406512    1.0831885    43.996394 
151556000    307.60541    276.54418   -1.9573165    1.5882045    31.061229 
151560000    324.26584    287.99389   -1.4029228    1.0764921    36.271954 
151564000    332.16206    274.88173   -1.2238789    0.2722629    57.280327 
151568000    303.20692    279.34284  -0.96031942    1.1463685    23.864083 
151572000    324.79057    270.68054   -2.1596827    1.1918694    54.110024 
151576000     295.8728    293.22133   -1.0063418   0.72420599    2.6514738 
151580000    323.25275    276.31061   -1.5528527    1.5504916    46.942146 
151584000    319.84721    277.18488  -0.73119362   0.23970776    42.662326 
151588000    312.51191    294.68531   -1.8674915  -0.92599969    17.826594 
151592000    295.34266    315.61933  0.092382242   0.27140222   -20.276674 
151596000     333.2452    284.00636   -2.1508611    1.3139875    49.238836 
151600000    322.12908    278.02835     -2.03753   0.51320186    44.100733 
151604000    325.15078    286.73845   -2.9942341  -0.68757766    38.412328 
151608000     324.3347    273.51387   -3.0333279   0.76324362    50.820831 
151612000    323.54428    285.12628   -2.9843902   0.50158728    38.417998 
151616000    341.87182    290.06249   -2.3761208    1.5197019    51.809327 
151620000    334.61565    305.67273   -2.1517089  -0.57476804    28.942928 
151624000    349.07438    293.71701   -2.5630035  -0.15456396    55.357367 
151628000    312.65608    294.05046   -1.2339044   0.76518413    18.605613 
151632000    280.47557    309.88409   0.44533268  -0.68095374   -29.408523 
151636000    329.13383    283.22014  -0.63099283    1.7270317    45.913696 
151640000    327.37695    286.82767  -0.20663298   0.67655768    40.549282 
151644000    332.75644    292.86604   -2.0545672   -1.0364327    39.890401 
151648000    323.55954    265.14823   -1.6963939    2.1896435    58.411313 
151652000    302.23151    258.12803  -0.68184201    2.5719502    44.103473 
151656000    318.00287    277.84998   -1.4959164    1.3431892    40.152886 
151660000    338.30145    298.07528   -2.2389759  -0.18716316     40.22617 
151664000    320.47101      289.065   -3.1852572    1.3530087    31.406007 
151668000    294.34077    288.32684   -2.0464217   0.62021514    6.0139353 
151672000    325.21875    293.52826   -2.9507604     1.414481    31.690485 
151676000    304.78418    293.06849   -1.6663403   0.86701244    11.715681 
151680000    309.02637     254.6199   -2.5300574    2.4450983    54.406469 
151684000    352.39876    298.27117   -5.0029875    1.5239756    54.127591 
151688000    345.58658    298.39817    -5.225124  -0.76577264    47.188406 
151692000     322.4925    266.32231   -2.6193922    2.4901818    56.170198 
151696000    338.49737    284.69846   -4.7661493    1.7106179    53.798914 
151700000     348.9505    276.40511   -4.2537732    2.1802272    72.545399 
151704000    299.15921    280.14679   -1.9010204    2.0993009    19.012421 
151708000    324.69153    272.87018   -2.7425722    1.9364957    51.821346 
151712000    304.35512    289.00821   -3.7522948    1.4233744    15.346916 
151716000    323.96945     264.2448   -3.3926681    1.0703721    59.724651 
151720000    322.62571    254.78337   -2.6487912    2.6140698    67.842344 
151724000    313.95621     283.1266   -2.3134082   0.58821592    30.829604 
151728000    320.90943    291.35177   -2.5260896  0.025024937    29.557659 
151732000    314.30619    274.96393  -0.67933243    1.3731189    39.342255 
151736000    314.49189    271.12556   -1.5356339    1.5813335    43.366324 
151740000    323.59372    299.51062   -3.0277191   -0.4456077    24.083101 
151744000    335.06041    266.25879   -2.5506241    1.1090677    68.801618 
151748000    314.98416    273.00478   -2.2464956    1.1696964    41.979376 
151752000    320.56269    286.56957   -2.8417511   0.18718943    33.993116 
151756000    331.25437     263.3508   -2.6554997    0.5608721    67.903565 
151760000     327.0766    278.66684   -2.5846771    1.2937731    48.409761 
151764000    323.20924    291.93971   -1.6882912  -0.27751645    31.269534 
151768000     321.4463    269.90808   -2.0440893    1.3572088    51.538215 
151772000    325.30616    269.50081   -3.5535752    0.9671994    55.805346 
151776000    309.14533    269.70898   -1.0753921    0.5412704    39.436348 
151780000    330.40525    279.57793   -3.0262891    1.1947963    50.827315 
151784000    316.75899    284.59618   -1.6315869   0.89164801    32.162808 
151788000    338.02965    286.25386   -4.2194255   0.76334319    51.775782 
151792000    338.94096    306.17261    -4.084156   0.22693863    32.768353 
151796000    304.45565    276.31776   -3.1323727    1.3997822    28.137887 
151800000    324.69182    274.23578   -2.8007582   0.48418229    50.456044 
151804000    304.75264    279.40891   -2.0114206    1.8659672    25.343728 
151808000    327.67236    296.15816   -2.6547603  -0.47118702    31.514208 
151812000    299.21622    297.11025    -1.484553   0.91739214    2.1059701 
151816000    328.95761    283.34381   -3.2313663   0.55425017    45.613799 
151820000    319.04582    289.43393   -2.1207979   0.36615736    29.611892 
151824000    337.48482    288.00856   -2.8237123    1.6505316    49.476258 
151828000    314.53105    278.98621    -1.897056   0.79877058    35.544843 
151832000    310.40249    288.14823   -1.3094318    1.3192577    22.254261 
151836000    335.26344    273.40429   -2.8047378    1.3955455    61.859147 
151840000     348.5116    266.81078   -4.4990044    1.2123328    81.700816 
151844000    315.11842    256.14454   -1.9786976    1.8189319    58.973875 
151848000    320.92529     276.6981   -2.7411092   0.40966163    44.227183 
151852000    333.40662    283.45265    -3.302122    0.9054206    49.953968 
151856000    311.41106    304.61364   -1.5253812   0.22981586     6.797418 
151860000    303.77469    288.16924  -0.55302321   0.77667371    15.605453 
151864000    318.74735    289.60439   -2.1611527    0.3830521    29.142965 
151868000    319.34361    280.41893   -2.1994497   0.58462785    38.924685 
151872000    319.87574    269.48639   -2.6766562     1.542644    50.389356 
151876000    327.77314    274.32882   -3.7493763   0.24493761    53.444319 
151880000    312.88917    283.48721   -1.8533166   0.15498735    29.401964 
151884000    308.31208    282.27103   -1.7844649   0.39958681    26.041049 
151888000    324.58539    258.75081   -2.8803203    2.2560028    65.834582 
151892000    331.64117    298.85538   -3.8888167  -0.89629534    32.785789 
151896000    308.63673    300.52918     -2.57122  -0.69136749    8.1075449 
151900000      346.012    275.84108   -3.2404648   0.61934681    70.170918 
151904000    311.67363    270.48431   -1.3298321    2.5247857    41.189312 
151908000    323.89239    281.24511   -3.1228809   0.12889903    42.647278 
151912000    337.65944    266.89003   -3.4171271   0.16326886     70.76941 
151916000    310.83708    276.90673   -2.5467837   0.46362747    33.930347 
151920000    326.32658    255.57045   -2.8345042    1.7041839    70.756122 
151924000      344.535    277.33128    -4.936809   0.92543291    67.203719 
151928000    328.97664    289.37084   -3.3889524    1.1686099    39.605801 
151932000    324.48261     265.8119   -3.1412879    2.4759646    58.670706 
151936000    305.89987    279.17309   -2.1598979    1.3424502    26.726781 
151940000    312.72797    286.91581   -4.2037394    1.8126651    25.812162 
151944000    353.44957    285.27141   -4.1963875    1.6327694    68.178155 
151948000    326.32082    268.18481   -3.3718126    2.2545217    58.136008 
151952000    313.55258    279.95597   -2.4325875  0.058342105    33.596608 
151956000    317.57256    282.22469   -4.7837434    1.9110592    35.347872 
151960000    337.84601    285.71225   -5.5675533    1.7715682    52.133762 
151964000    314.93499    277.09352   -2.1849308    2.5517945    37.841476 
151968000     321.2104     280.2389   -2.7882723    2.7229113    40.971502 
151972000    310.87015    293.86881   -1.7101535   0.90474001     17.00134 
151976000    330.61446     285.4031   -2.6679441    2.0975508    45.211361 
151980000    304.71221     281.2607   -2.5897195    1.9519508    23.451511 
151984000    328.96707    276.72015   -3.4694536    1.8364202    52.246919 
151988000    308.85549    282.27405  -0.53117141    1.7349655    26.581439 
151992000    288.97408    289.40238   -1.9215382  0.014253712  -0.42829916 
151996000    311.25263    290.18248   -3.1974475    0.3476157    21.070149 
152000000    320.86514    264.45895   -3.0360726    2.2199027    56.406193 
152001000    363.54591     278.8626   -3.7357572    1.0951751    84.683311 
Loop time of 1058.26 on 4 procs for 800000 steps with 1498 atoms

Performance: 16.329 ns/day, 1.470 hours/ns, 755.959 timesteps/s
99.7% CPU use with 4 MPI tasks x no OpenMP threads

MPI task timing breakdown:
Section |  min time  |  avg time  |  max time  |%varavg| %total
---------------------------------------------------------------
Pair    | 529.36     | 733.64     | 938.91     | 740.9 | 69.33
Bond    | 3.268      | 5.1042     | 6.8612     |  77.7 |  0.48
Neigh   | 5.6491     | 5.6524     | 5.6538     |   0.1 |  0.53
Comm    | 13.681     | 211.24     | 408.24     |1352.9 | 19.96
Output  | 0.0053101  | 0.013319   | 0.016984   |   4.0 |  0.00
Modify  | 56.25      | 77.744     | 100.73     | 206.0 |  7.35
Other   |            | 24.86      |            |       |  2.35

Nlocal:    374.5 ave 714 max 35 min
Histogram: 2 0 0 0 0 0 0 0 0 2
Nghost:    2378.5 ave 4265 max 496 min
Histogram: 2 0 0 0 0 0 0 0 0 2
Neighs:    13075.5 ave 25888 max 308 min
Histogram: 2 0 0 0 0 0 0 0 0 2

Total # of neighbors = 52302
Ave neighs/atom = 34.9146
Ave special neighs/atom = 0.518024
Neighbor list builds = 1386
Dangerous builds = 0
unfix 1


# PRODUCTION

fix             1 all nve
fix             hot all langevin ${TThi} ${TThi}  0.005 59804  tally yes
fix             hot all langevin 320 ${TThi}  0.005 59804  tally yes
fix             hot all langevin 320 320  0.005 59804  tally yes
fix             cold all langevin ${TTlo} ${TTlo} 0.005 287859 tally yes
fix             cold all langevin 280 ${TTlo} 0.005 287859 tally yes
fix             cold all langevin 280 280 0.005 287859 tally yes
fix_modify      hot temp Thot
fix_modify      cold temp Tcold

variable        tdiff equal c_Thot-c_Tcold
thermo          4000

dump gigo all atom 4000 dump.cords_xyz.dat
dump_modify gigo scale no
dump vfgigo all custom 4000 dump.velo.dat id vx vy vz fx fy fz

# thermal conductivity calculation
# # reset langevin thermostats to zero energy accumulation
#
compute         ke all ke/atom
variable        temp atom c_ke/1.5/0.00008617333262

fix             ave all ave/time 100 40 4000 v_tdiff ave running
thermo_style    custom step temp c_Thot c_Tcold f_hot f_cold v_tdiff f_ave

#compute         layers all chunk/atom bin/1d z lower 0.05 units reduced
compute         layers all chunk/atom bin/1d z lower ${dz} units box
compute         layers all chunk/atom bin/1d z lower 6.0700273388011 units box
fix             2 all ave/chunk  100 40 4000 layers v_temp file profile.langevin

run             16000000
WARNING: Using a manybody potential with bonds/angles/dihedrals and special_bond exclusions (../pair.cpp:218)
Neighbor list info ...
  update every 1 steps, delay 0 steps, check yes
  max neighbors/atom: 2000, page size: 100000
  master list distance cutoff = 16
  ghost atom cutoff = 16
  binsize = 8, bins = 3 3 23
  4 neighbor lists, perpetual/occasional/extra = 4 0 0
  (1) pair lj/cut, perpetual, skip from (4)
      attributes: half, newton on
      pair build: skip
      stencil: none
      bin: none
  (2) pair morse, perpetual, skip from (4)
      attributes: half, newton on
      pair build: skip
      stencil: none
      bin: none
  (3) pair eam, perpetual, skip from (4)
      attributes: half, newton on
      pair build: skip
      stencil: none
      bin: none
  (4) neighbor class addition, perpetual
      attributes: half, newton on
      pair build: half/bin/newton
      stencil: half/bin/3d/newton
      bin: standard
Per MPI rank memory allocation (min/avg/max) = 12.03 | 12.29 | 12.45 Mbytes
Step Temp c_Thot c_Tcold f_hot f_cold v_tdiff f_ave 
152001000    281.25956    363.54591     278.8626           -0           -0    84.683311            0 
152004000    269.84958    326.83299    268.47236   0.65047272   0.48747269    58.360629            0 
152008000    267.79246    325.93514    251.50071   0.38164221    1.9018331    74.434431    39.841882 
152012000    271.31195    321.29686    278.66431    1.1572976   0.34753172    42.632553    40.463615 
152016000     269.2939     303.6499    269.72125   0.77204601   0.87768278    33.928646    39.823276 
152020000    267.35562    302.14383    285.67707    2.5050213   0.79268243    16.466754    40.074562 
152024000    278.34061    326.89432    280.88384    1.4416451    1.0700795    46.010484    40.286567 
152028000    277.55473    342.25917    283.69851  -0.10428135    1.2214303    58.560666    40.909093 
152032000    270.73963    326.98242    287.81437   0.49557728   0.52560524    39.168051    40.742016 
152036000    269.10001     325.6494    258.23582   0.16941064    2.1037119    67.413576    40.670408 
152040000    266.83057    342.91676     253.4726   -1.1130696    1.2424782    89.444165    40.632085 
152044000    270.88821    306.52177    263.24713    1.0839173    2.1008264    43.274644    40.292276 
152048000    264.12935    302.74757    279.02515   0.79866504    1.2087762    23.722419    40.068485 
152052000    265.99299    320.06952    250.99295     1.868542    2.4016974    69.076575    39.688619 
152056000    269.59255     328.6534     266.4069    1.0979881    1.4851085    62.246501    39.662568 
152060000    274.68477     329.2133     285.6533   0.45188255    1.0358507    43.560006    40.001863 
152064000    267.76288    314.80482    285.69115     0.669901   0.20892474    29.113674    39.943452 
152068000    262.95013    325.71555    269.55226   0.18855226   0.37853173    56.163287    39.840395 
152072000    273.79262    315.74847    282.35517   0.12392451   0.25330945    33.393294    39.903049 
152076000    269.31457    334.96781    274.23854    0.4812951   0.27818967    60.729269    39.920524 
152080000    268.63206    315.33112    281.60982   0.90568166  -0.45428548    33.721301     40.07078 
152084000    273.43249    332.18044      279.169   0.63916822  -0.23138365    53.011439    40.024037 
152088000     275.1407     340.6454     274.7406  -0.61664513    1.2207456    65.904808    40.084944 
152092000     259.7676    303.88953    270.46371    2.5891286   0.84235356    33.425819    39.968275 
152096000     256.8054    307.52691     249.1022    1.1638003    2.6951188    58.424715    39.914273 
152100000    265.45852    305.54288    278.47936    1.6043587    1.3896712    27.063518    39.820854 
152104000    270.73778     316.5178    276.19219    2.3978557    1.5640057    40.325608    39.901101 
152108000    271.18824    319.79485    283.51253     1.012833    1.0890298    36.282325    39.968743 
152112000    272.05384    329.75846     249.9779    0.1228248     2.205062    79.780565    39.983783 
152116000    272.93752    315.81236    284.10472   0.31434072   0.32810606    31.707634    39.823324 
152120000    266.95666    324.22257    271.66339   -1.1311489   0.95978591    52.559178    39.832924 
152124000    267.07475    294.81057    277.37398    1.2393189    1.4866452    17.436592    40.070583 
152128000     266.7887    290.34778    286.83727    2.5136235    1.5445331    3.5105149    39.932075 
152132000    272.72453    339.07879    264.65168  0.040613444    2.5969977    74.427109     39.96278 
152136000    261.99103    308.25566    276.26255    1.3633039    1.7297581     31.99311    40.002915 
152140000    275.10956    318.96051    301.83987   0.74012099   0.48044605    17.120634    39.883695 
152144000    268.83572    318.75986     289.8007   0.67040399    0.4882874    28.959164    39.869606 
152148000    274.71318    339.88376     275.0347  -0.96404705    1.6828503    64.849061    39.785104 
152152000     266.4218    321.07549     270.0641    1.2078628    2.0888651    51.011397    39.752771 
152156000    271.89211    304.81771    284.05671    1.7902227  0.094222483    20.761009    39.706606 
152160000    273.56346    306.58645    295.20325    1.6868087   0.57041111    11.383206    39.667293 
152164000     275.3604    323.87324    287.99715   0.47562758   0.87389834    35.876086    39.636833 
152168000    274.73827    321.21908    290.73622    1.0819298   0.43389687    30.482853    39.602382 
152172000    273.57087    332.15853    266.84164    0.7621517    1.3631548    65.316883    39.633188 
152176000    262.20715    299.22776    274.69465    2.6900961   0.89653648    24.533116    39.630811 
152180000    268.89464    308.49447    272.73094    1.0306699     1.996882    35.763529    39.675219 
152184000    278.59404    329.87437    280.54378   0.59976159    1.8189477    49.330589    39.621923 
152188000    264.98222    309.10363    264.85972    1.7959283     1.981167    44.243906    39.562911 
152192000    270.59642    343.12033    263.20198  -0.33776979    1.9239898    79.918352    39.586192 
152196000    278.70793    349.15866    280.39109  -0.58255728   0.84867614    68.767565    39.589459 
152200000    267.71455    313.22022    276.02157    1.3091334    1.1730228     37.19865    39.535347 
152204000    261.84983    303.28919    267.93289     2.297547    2.5301854    35.356301    39.424781 
152208000    273.64454    324.47924    291.59534   0.65289295    1.0938501    32.883893    39.422453 
152212000    264.89155    320.18629    274.71248   0.72132859    1.6833398    45.473812    39.469278 
152216000     263.4486    317.20386    272.38474    0.2573862   0.96865549    44.819123    39.419891 
152220000    266.70045     297.6264    286.77364    2.2122637   0.74631939    10.852757    39.325395 
152224000    275.49023    332.21092    287.53663  0.025879742    1.3707741    44.674284    39.283954 
152228000    267.19517    305.89462    280.24533    1.8620765    1.5911475    25.649293    39.317861 
152232000    276.79838    343.50795    273.70614   0.23514824    2.7003159    69.801808    39.337683 
152236000    266.39303    321.06661    268.66466    0.6101178    1.8501582    52.401957    39.390737 
152240000    265.56394    306.66269    281.52527    1.3510099    1.2903656    25.137419    39.360984 
152244000    268.57615     312.5593    284.47489  -0.20016484    1.0953571    28.084405    39.321384 
152248000     285.2144    356.88748    282.51434   -1.8057355    2.0243622    74.373144    39.334372 
152252000    269.04731    307.14951    279.54181   0.66721833    1.0890183      27.6077       39.376 
152256000     277.2753    327.83547    289.93936  -0.74126091    1.8495507    37.896108    39.389488 
152260000    272.39835    318.77298    282.19125  0.047271831     2.128179    36.581732    39.436141 
152264000    270.39433    320.94512    283.80677   0.19111211    2.4133674    37.138349    39.341091 
152268000    275.17536     313.2978    293.09548   0.20466887    1.4837263    20.202315     39.39048 
152272000      273.693     327.7856      280.797  -0.56511632    2.3073767    46.988601    39.443265 
152276000    265.39011    299.10302    266.01962    1.5703482    2.9189779    33.083392    39.487396 
152280000    273.10201    334.02589    291.79254  -0.59060041    1.6571459    42.233348    39.453412 
152284000    267.78282    323.81763    286.74069 -0.033772423    2.6008507    37.076934    39.439487 
152288000    271.13147    330.80565    278.47941  -0.39949456    2.3948693    52.326248    39.453124 
152292000    271.78669    325.40912    276.82041    0.4242256    2.6258999    48.588709    39.412421 
152296000    265.76825    331.80105    278.89582   -1.0370466    3.5566498    52.905235    39.434461 
152300000     280.9537    341.27062    302.04686  -0.47626048   0.50453612    39.223762    39.441359 
152304000    256.75923    286.72454    261.55058      2.15431    3.3158808    25.173958    39.441312 
152308000    264.09454     312.9212    257.73806   0.67513723    3.7505017    55.183134    39.433159 
152312000    276.83843    339.70957    287.36634   -1.0155796    1.4328635    52.343227    39.485836 
152316000    266.88558    322.64931    273.65361  -0.35344997    2.3464216    48.995699    39.480258 
152320000    270.98837    304.05252    299.26913   0.30910286   0.97141981      4.78339    39.503152 
152324000    262.11508    296.60438    265.15372    0.4515359    2.6708688    31.450656     39.53231 
152328000    255.19058    295.86292    259.18829    1.3763999     2.904362    36.674628    39.505846 
152332000     270.5375    330.42267    285.48523   -1.5948639    2.3445745    44.937445    39.590916 
152336000    274.09065    336.07478     272.3662  -0.24077918    2.5704621    63.708584    39.584249 
152340000    268.25976    313.85125    281.55145   0.42870265       1.5415    32.299794    39.614905 
152344000    265.17303    336.76362    273.00669  -0.53001691    2.9349095    63.756932    39.663772 
152348000    269.44259    326.76927    281.99093   0.65773463    2.3532745    44.778338    39.673665 
152352000    262.34073    301.60166    274.65006   0.93517805    3.3623831    26.951597     39.67404 
152356000    264.14775    320.23199    257.87159  -0.40401181    3.5015432    62.360405    39.741346 
152360000    269.33317     331.1603    284.62291  -0.38578616    1.9035744    46.537384    39.764471 
152364000    273.77696    344.69279    285.93514  -0.86893463   0.86203203    58.757649    39.745858 
152368000    260.86842    301.65174    274.91669    1.3781294    1.8705899    26.735045    39.716394 
152372000    268.77388    320.25066    290.53112  -0.28377373    1.6735579    29.719541     39.68353 
152376000    265.49585    295.61489    288.36423    1.1283238    1.1008477    7.2506628    39.701594 
152380000    263.66948    309.31926    271.20083    1.5155159     2.189353    38.118427    39.688249 
152384000    267.70992    313.36611    285.07162    0.8984801    1.4402165    28.294482    39.668128 
152388000    268.97226    328.66024    286.34705   0.43461317      2.24498    42.313195    39.733431 
152392000    256.75788    302.59137    282.66289    1.2066504    1.8351366    19.928479    39.721664 
152396000    276.48238    330.68477    298.64774  0.021710996    1.0005216    32.037034    39.690081 
152400000    272.89496    316.15249    288.24399   0.31413179     1.402882    27.908498    39.658973 
152404000    276.52527    338.04151    282.97835   -1.1533871    2.6176805    55.063157    39.688591 
152408000    270.95041    347.72528    256.22308   -1.9862747    2.8332119      91.5022    39.646187 
152412000    266.47084     316.5143    276.54547   0.54995557    2.1417005    39.968837    39.624146 
152416000    264.85437    318.86337    270.01686   -0.2072084     3.165911    48.846511    39.655666 
152420000    275.81736    328.08804    308.69794  -0.45091908     1.176248    19.390098    39.695088 
152424000    275.73511    327.76339    315.25682   -1.4018431   0.47529017     12.50657    39.662569 
152428000    267.51711     314.6668     283.9637   0.48394649    2.1441561    30.703105    39.686503 
152432000    263.10684     299.7885    272.25779    1.9411533    2.8839945    27.530708    39.665378 
152436000    267.32079    324.63152    288.64356    1.4727924    2.2182805    35.987953    39.637594 
152440000    263.60802    313.89837    276.30606    1.8324787    2.0392713    37.592309    39.627863 
152444000    264.66717    317.92835    270.52079    1.3603836      1.68949    47.407552    39.598078 
152448000    260.71447    328.19272    253.90648    1.1531482    2.5073468    74.286244    39.607663 
152452000    265.76617    312.72638    284.69956    1.9819668   0.88606963    28.026821    39.575691 
152456000    277.18882    323.00346    293.11696    1.0969583   0.27099864    29.886502    39.636081 
152460000    273.07645    322.85838    285.66747    1.2980217    1.4224142    37.190912    39.634339 
152464000    270.20748      328.272    270.17545    1.3961982     1.072316    58.096556    39.643326 
152468000    271.29967    307.99671    280.84984   0.54939872   0.05679248     27.14687    39.627446 
152472000    258.28286    316.62739    267.69346    1.1611131     1.798781    48.933927    39.668815 
152476000     270.5053    317.64046    284.79767   0.20884086    2.1570315    32.842798    39.646427 
152480000    259.92618    315.48466    264.16122    2.3865467    2.8372449    51.323448    39.647355 
152484000    266.49848    334.00516    273.26434  -0.20299528    1.0975569    60.740813    39.658973 
152488000    271.62783    317.42856    288.26989    1.2843232 -0.077496231    29.158667    39.644035 
152492000    271.61303    311.87158    267.16995    1.7210997    1.3170624    44.701622    39.644832 
152496000    283.87818    350.20194     304.1675   -1.0306804  -0.82915187    46.034441    39.632419 
152500000    269.13867    317.07333    286.92733   0.49400736   0.26383674    30.146006    39.634416 
152504000     275.0214    302.92345    280.87139    1.9092369   0.26766635    22.052068    39.628924 
152508000    284.80422    341.30454    302.99706   0.32797172   0.28365719    38.307482    39.622029 
152512000    268.08143    326.49227    283.80175  -0.21217138    2.4931035    42.690522    39.616376 
152516000    273.18563    333.43775     278.6782   0.07607931    2.1808652    54.759556    39.612958 
152520000    272.35401    331.30224    284.01211 -0.048163853    2.6883044    47.290129    39.611882 
152524000    278.21891    337.34204    295.80273  -0.58027752   0.68417502    41.539311    39.584102 
152528000    266.71883    311.26042     274.2429   0.86286909    1.2169396    37.017521     39.60987 
152532000    261.45408    302.92678    272.42559    1.4111804    1.2995295     30.50119    39.622942 
152536000    271.06563    303.02555    286.13018  -0.52855571   0.72199722    16.895367    39.582684 
152540000    268.52347    328.29586    267.64287  -0.41117365    2.2088626     60.65299    39.566695 
152544000     266.7661    311.58694    272.10854    0.1823042    2.2231784    39.478408    39.558422 
152548000    274.18869    311.15417    292.90064   0.18849769    1.6879554    18.253529    39.548527 
152552000    265.05561    307.01261    280.84727   0.76903122    1.3947028    26.165341    39.535133 
152556000    274.57713    324.14496    271.55988  -0.14156152    1.5671088    52.585085    39.544737 
152560000    277.11271    330.14205     285.8394    -0.849716  -0.93041294     44.30265    39.550716 
152564000    274.49331    305.09712    284.29971   0.79651188   0.19935371    20.797416    39.552275 
152568000    278.55243    333.29696    295.74193   0.45539368  -0.44902857    37.555033     39.57952 
152572000    268.73626    325.02652    274.26475    0.1187555   0.37009447    50.761774    39.584718 
152576000    266.33725    323.98275     275.8525  -0.54137989    1.0874222     48.13025    39.549207 
152580000    274.75973    309.65108      287.038   0.35176328  -0.48952131    22.613074    39.557625 
152584000    271.79287    320.21301    271.46384  -0.41032697   0.87566713    48.749169    39.577238 
152588000    270.75478    326.59521    289.71511   -0.6312882   0.50114612    36.880097    39.597148 
152592000    274.55456    316.54678    296.10647    1.0508112  -0.05233076    20.440309      39.5595 
152596000    274.44651    321.91411    288.34218   0.11941375   0.82229235    33.571926    39.527026 
152600000    274.47606    328.29573    271.93608  -0.95067192   0.44529687    56.359644    39.547622 
152604000    269.50149    323.83024     266.3455  -0.14587435    2.0541868    57.484741    39.535617 
152608000    274.30079    329.24352    290.19585   -1.7174151  -0.73683904     39.04767    39.536316 
152612000    271.01119    303.09459    283.67379  -0.52157769    1.4494962    19.420807      39.5399 
152616000    277.64935    322.15096    291.40119 -0.0020082132 -0.079476355    30.749767    39.540898 
152620000    270.70755    313.33386    277.87182   0.11186053    2.1296757    35.462043    39.545648 
152624000    272.85622    321.38282    280.29193  0.079669531    1.9104679    41.090892    39.533253 
152628000    275.13196    322.72842    288.68826  0.080220833   0.60324359    34.040167    39.530396 
152632000     279.8504    342.82403    285.00116  -0.59902274    1.2524734     57.82287    39.554863 
152636000    270.85233    338.10173    270.32848  -0.52557452   0.14895365    67.773246    39.565826 
152640000    275.44701    321.43051     287.7327  -0.17951786   0.25261759    33.697816    39.565859 
152644000    268.44151    306.02903    275.27237   0.12226973    1.5604737    30.756658     39.58619 
152648000    273.48534    321.73092    289.14184 -0.014250947  -0.53674245    32.589078    39.578782 
152652000    276.66095    323.23323    276.47702  -0.44956869    1.5178204    46.756207    39.605027 
152656000    273.47577    310.16233    285.83187  0.076711157    2.1445916     24.33046    39.574837 
152660000    278.60834    330.89106     288.9765   -1.1523078    1.2345581    41.914561    39.567643 
152664000    266.06788    297.43196    278.02965   0.35171278    1.2792378    19.402307    39.540145 
152668000    268.35731    314.01789    285.24788    0.2339803    1.1920898    28.770009    39.573342 
152672000     272.0794    319.26957    266.69619   -1.1350568    2.2294778     52.57338    39.577227 
152676000    266.94311    325.02269    266.79611   -1.0180484    2.5177006    58.226571    39.590429 
152680000    280.02924    328.82956    292.35769   -1.4553017   0.92228611    36.471872    39.598185 
152684000    270.46906    299.85787     280.7305 -0.099368226    1.3307345    19.127366    39.595466 
152688000    277.79833     337.2343    287.73056   -1.4890255   0.67603886    49.503739    39.623011 
152692000     275.0123    339.81229    297.91363   -1.7720139  -0.84550103    41.898667    39.626647 
152696000    278.77469    338.55214    281.73858   -1.0875207  0.010976708     56.81356    39.644846 
152700000    281.30914    339.26815    276.79031   -1.3703693    1.2245704    62.477839    39.660767 
152704000    274.66397    309.54386    285.33989   0.33748636     2.199879    24.203978    39.653704 
152708000    272.48945    309.90574      289.561   0.14281309  -0.21694998    20.344749    39.646636 
152712000    278.55228    318.10323     291.8364   0.28685153   0.85104764     26.26683    39.649297 
152716000    268.91544    306.86402     272.2413   0.50005698    2.0605783    34.622722    39.640778 
152720000    273.95954    330.53891    261.05598   -2.0245666    2.4214255    69.482925    39.655324 
152724000    270.54564    320.79115    287.44276   -2.2602475    1.8634877    33.348391    39.643692 
152728000    274.00734    331.43649    270.70509   -2.2740949    1.9749714    60.731394    39.663026 
152732000    282.16297    335.16643    283.69886   -2.2690718   0.87327698     51.46757    39.672012 
152736000    273.69127    301.70009    284.82805   -1.1978961    1.4537888    16.872031    39.670162 
152740000    272.11308    330.60481    272.81524    -1.826459    2.4437955    57.789573    39.676638 
152744000    284.16263    337.61237    300.15072   -2.0689647  0.067848201    37.461649    39.681297 
152748000     272.9141    325.06494    286.48138   -1.8144438   0.57250952    38.583561    39.671507 
152752000    276.21806    322.17874    271.58509  -0.91396276    1.3947865    50.593648    39.683083 
152756000    278.82633    331.45849     282.7139   -2.9386853    1.2899749    48.744597     39.69963 
152760000    276.43547    320.57619    283.60868   -1.3601842    1.9366045    36.967514    39.686266 
152764000    277.49142     325.1313    293.06364  -0.77488809   0.77106407     32.06766    39.693585 
152768000    271.09157    309.35405    262.39478  -0.34599716    2.9344164    46.959273    39.684599 
152772000    282.19902    350.11672    293.04652   -2.1637025    1.2897659    57.070206    39.692666 
152776000    272.07137    317.11963    280.32242  -0.21911073    1.5484954    36.797217    39.679879 
152780000    264.09346     298.0186    284.38519  -0.43065315     2.302522     13.63341      39.6888 
152784000    268.34117    329.64236     262.6611   -0.4564849    2.8080683     66.98126    39.704026 
152788000    269.50268    332.94355    261.66187  -0.34260533    2.7580343    71.281678    39.713784 
152792000    273.61476    321.78069    280.94671   0.48117581    2.3136232    40.833975    39.701405 
152796000    277.36265    331.93203    287.67215  -0.48419967    2.0677683    44.259881      39.7252 
152800000     267.6775    311.41281    265.10102   -1.0763011    3.5042868    46.311788    39.758832 
152804000    274.25344     317.6692    287.69223 -0.081484223    3.4076181    29.976969    39.759968 
152808000    268.76749    323.89123    275.81887  -0.28030319     3.175731    48.072356    39.762413 
152812000      279.197    334.14539    280.99643  -0.66309952    1.8546845     53.14896    39.770684 
152816000    265.49209    295.74261    274.75702   0.27389116     1.962616    20.985598    39.762571 
152820000    279.67812    351.24309    294.00927   -2.4436427    1.1391769    57.233821    39.775819 
152824000    264.15222    312.95101    259.70565   0.10223052    2.6683133    53.245362    39.769353 
152828000    276.11908    339.82184    267.76298   -2.0802003    2.2222349    72.058867    39.793785 
152832000      277.039    318.03907    286.10396   -1.7697723    1.7818358    31.935105    39.791693 
152836000    275.17225    325.37835    274.40213   -1.9885734    1.8539312    50.976222    39.790262 
152840000    274.46508    319.95427     278.1673   -1.0196821    2.5640489    41.786968    39.793095 
152844000    268.60651    327.14863     268.1669   -1.9517174     2.396376     58.98173    39.787777 
152848000    269.04172    318.72195    269.17082   -1.9170809     1.575126    49.551127    39.800171 
152852000    272.27121    298.32088    288.35607   -1.3095331     0.405349    9.9648093     39.80759 
152856000    267.22251    315.55659    269.12461   -2.6884429    1.5478903    46.431984    39.791417 
152860000      267.073     292.8026     274.8638   -1.3790232    1.6616721    17.938796    39.800532 
152864000    275.00031    323.47423    279.36866  -0.99520745    1.3373709    44.105566    39.781443 
152868000    276.39505    321.17003    271.07455  -0.63718228    1.4724534    50.095478    39.761235 
152872000    265.46605    286.38509    265.67647  -0.31936482    1.6842557    20.708615    39.759845 
152876000    269.45201    304.59788     263.0973   -1.3398873    1.8408296    41.500585     39.76375 
152880000     275.8595    304.67615    277.59721   -0.9239074    2.2115127    27.078933    39.765158 
152884000    280.12679    351.59345    273.09436   -4.3417649    2.1270693    78.499083    39.791405 
152888000    275.24405    335.96962    279.28345   -3.9904864    1.5860467    56.686172     39.79212 
152892000    280.00004     303.5179    281.96062     -1.22671    1.3799057    21.557283    39.790276 
152896000    278.01653    307.94193    297.73283   -1.7990375    0.3849351    10.209102    39.780265 
152900000    283.79813    325.17508    285.15819   -3.0452676   0.37109539    40.016892    39.785612 
152904000    279.92104    336.64527    279.07659    -2.090375  0.069127536    57.568674     39.81108 
152908000    279.55786    315.21973    298.73623  -0.24388463   -1.0679344    16.483502    39.825954 
152912000    278.08777    321.94162    269.05249   -1.1816979    1.4622629    52.889132    39.826114 
152916000    277.59617    313.01086     300.0807  -0.57431778   0.33159703     12.93016    39.819434 
152920000    276.50532    332.32572    286.02501   -2.0639629   0.21683977    46.300706    39.810436 
152924000    271.60755    314.74714    261.63803   -1.7788329     2.422347    53.109109    39.810396 
152928000    277.32605    311.06193    293.95802   -0.6471051   0.34454363    17.103907    39.794636 
152932000    282.74108    344.85421    278.08702   -2.4023928    1.1204073    66.767186    39.801831 
152936000    269.87987    319.64031    265.42138  -0.64548474    2.4482693    54.218935    39.790912 
152940000    266.30784    303.22589    263.30874   -1.0943522    1.4550586    39.917151    39.811987 
152944000    264.63025    318.07391    258.98268  -0.56612987    1.7586922    59.091229    39.822977 
152948000    281.12137    351.14591    272.82336   -1.9724945   0.96325482     78.32255    39.839618 
152952000    283.21568    334.97392    281.97014     -1.21127   0.11193392     53.00378    39.829207 
152956000    280.48823    340.72112    271.54322   -1.1278183    1.0448536    69.177894    39.848335 
152960000     278.6735    327.78094    281.65598   -1.5011428  -0.24284016    46.124956    39.849398 
152964000    277.45296    303.20351    299.12968  -0.64805822  -0.91483083    4.0738383    39.841271 
152968000    281.79985    328.58631    281.94052    -1.195808    0.9548719    46.645796    39.831144 
152972000    276.88204    310.24414    271.96631   0.86979454 -0.093494347    38.277836    39.842654 
152976000     271.1899    299.34033     262.8986   -0.5551573   0.63847431    36.441724    39.834735 
152980000    276.01909    342.03225    275.01026    -2.886647   0.24764109    67.021998    39.831739 
152984000    274.81106    305.74737     261.7381  -0.79257734    2.6698564     44.00927     39.83195 
152988000    280.08788    323.56982    292.25359   -1.8092855   0.61290074     31.31623    39.854907 
152992000    278.06401    318.09672    285.47077   -1.1817384   0.91100405    32.625949    39.862443 
152996000    284.48212    333.59874    306.02539   -1.5396177  -0.92219231    27.573353    39.854382 
153000000    286.22066    333.01475    295.57252     -1.45935   0.26434628    37.442233    39.839931 
153004000    283.16755    321.36156    315.68243   -2.3440037   0.10965623     5.679124    39.842118 
153008000    269.35966    303.57706    273.01675   -1.3275568     1.474818    30.560314    39.838247 
153012000    283.40617    323.03003    290.99987   -1.9615208    1.0354465    32.030153    39.824459 
153016000    281.34418     306.5316    289.37595   -2.1854502    1.4475661    17.155654    39.822457 
153020000    283.51631    317.12173    288.74073   -2.9238102    1.3887393    28.381006    39.804311 
153024000    286.46124    339.40225    278.33126   -3.7239344    1.4194558    61.070986    39.807771 
153028000    281.51748    320.90279    296.13253   -2.5052587   0.57210376    24.770259    39.798349 
153032000    281.46131    313.17498    278.62208   -2.7859168    1.2109496    34.552898    39.798513 
153036000     285.7195    332.32716     272.2898   -3.4277113     1.075255    60.037358    39.788152 
153040000    272.41214    307.18535    271.84528   -1.9527405    1.0487672    35.340071    39.781706 
153044000    274.65265    304.93001      282.476    -2.409865   0.74896741    22.454011    39.784549 
153048000    274.43317    294.82679    264.12534   -1.9932879    1.5146626    30.701443    39.770038 
153052000    282.66874    341.58697    290.62935   -2.9851597    1.8344099    50.957617    39.775505 
153056000    282.20291    319.29414    265.36365   -3.5849813    1.9391658    53.930493    39.778139 
153060000    290.38251    318.98751     302.6299   -3.1635802   0.50872119    16.357606    39.788769 
153064000    292.98797    356.01952    278.85328   -3.7577606   0.17441005     77.16624    39.794341 
153068000    273.02032    306.19072    281.55284   -2.8918859   0.22677698    24.637881    39.786302 
153072000    288.37028     334.2829    290.27442   -3.7389639   0.11537272    44.008472    39.768238 
153076000    282.27271    341.82473    257.11989   -4.2031316    2.1969002    84.704839    39.768998 
153080000    278.15406    329.21728    278.35201   -2.6529504    1.1090128    50.865265    39.767022 
153084000    286.26511     338.9719    302.74364   -4.3019868   0.19567064    36.228268    39.770916 
153088000    287.01261    328.12555    304.46957    -2.998085   0.32588708    23.655978     39.78183 
153092000    282.29733    332.15199    285.23292    -3.011227    1.4478708    46.919074    39.801559 
153096000    279.37229    321.47374    290.60408   -1.7677404     1.566527    30.869656    39.807602 
153100000    277.36641    309.27387    279.00366   -1.2588625    1.8360394    30.270205    39.813336 
153104000    283.06037    329.92408    290.95456   -1.9440027    1.6573139    38.969519    39.804493 
153108000    282.48014    353.33127    258.58675   -4.0067387    3.1568789    94.744517    39.809805 
153112000    278.95883    318.64024    287.59475    -1.848279    1.3649475    31.045493    39.817012 
153116000    275.78751    317.63074     271.6793   -3.0782535    3.0888932    45.951438    39.829946 
153120000    280.85245    320.46605    262.37254   -2.5693831    2.3201301    58.093511    39.831481 
153124000    283.09819     324.4364    292.32888   -2.7153959   0.73819032    32.107527    39.826968 
153128000    270.99505    308.64799    266.42236   -2.0819654    1.3626764    42.225624    39.828469 
153132000    285.05709    316.48582    293.41748   -2.9437424  0.010706103    23.068336    39.820448 
153136000    274.54081    296.10736     295.1118   -1.6493054   0.91900549    0.9955582    39.806984 
153140000    286.61878     329.1092    285.13189   -3.3376276    2.2644145    43.977303    39.796654 
153144000    259.83663    286.79843    251.66401   -1.5167981    3.4250826     35.13442    39.797128 
153148000    282.37536    327.94778    284.76278   -2.3834073    1.9274064       43.185    39.807058 
153152000    279.71705    318.84839    288.16976   -2.9891501    1.1183516    30.678635     39.80399 
153156000    282.03065    321.34957    310.90574    -4.187717  -0.10317904    10.443838    39.785708 
153160000    281.67266    305.58425    291.01164   -2.8820238    1.0394645     14.57261    39.775138 
153164000    281.82611    316.92049    296.57525    -3.258454   0.98511852    20.345241     39.78219 
153168000    271.24594    331.34363     240.3196   -4.7131031    3.4428607    91.024026    39.782288 
153172000    280.49494     337.6817    267.35981   -3.6805287    2.7409074    70.321893    39.787957 
153176000    270.26528    283.19646    274.76444   -2.3067364    2.5111992    8.4320191    39.792562 
153180000    277.67151    324.97125    287.96995   -3.2990384    1.9608204    37.001298    39.788226 
153184000    267.48595    288.68599    271.49556   -1.7530012    2.6116242    17.190425    39.795544 
153188000    280.10136    311.03268    302.88076   -2.9818344    1.2339577    8.1519222    39.804374 
153192000    274.64219    305.07585    277.88232   -1.8737692     2.057728    27.193524    39.807718 
153196000    277.53238    320.84931    283.28771   -3.0665868    1.7908392    37.561601    39.820386 
153200000    276.94498    316.50968    265.66291   -3.8977293     2.333069     50.84677    39.824841 
153204000    263.54111    300.44428    252.26705    -3.369219    3.3551154     48.17723    39.847601 
153208000    284.21628    322.31903    280.13208   -2.9257408    2.1245334    42.186952    39.853404 
153212000    291.34332    353.29084    301.44979   -4.6143536     0.350585    51.841049    39.857565 
153216000    280.02458    324.01856    275.90423   -3.3298212    2.4515621    48.114325    39.872502 
153220000    290.29023    347.20931    301.13552   -3.5147392    1.0573899    46.073783    39.881627 
153224000     271.1818    301.23384    262.35347   -2.2741724    2.5048637    38.880362    39.895892 
153228000    286.30874    345.07075    283.69427   -4.2378549    1.7874574    61.376476    39.901917 
153232000    291.12748    350.57766    287.93229    -5.132644    2.0569671    62.645372    39.909229 
153236000    275.44831    308.13061     283.6733   -1.8968786    2.2984845    24.457305    39.891375 
153240000    272.42299    316.21321    264.53966   -1.8555483    2.9872565    51.673542    39.887408 
153244000    269.55071    303.21123     264.7382   -1.9670778    2.6607973    38.473029    39.877851 
153248000    283.25011    317.86709    301.13674   -3.0334212    1.5086206    16.730353    39.868305 
153252000    275.76906    351.00362    281.31839   -4.8411804    2.9374941    69.685234    39.856378 
153256000    279.37655    314.63041     306.6596   -3.2746774   0.94023522    7.9708107    39.863633 
153260000    281.44108    336.08251      298.023   -3.6389117     2.001189    38.059507    39.868379 
153264000    272.05961    321.41922    282.44828   -2.9191317    2.6534172    38.970943    39.869171 
153268000    279.15545    322.28572    268.87099   -2.6209576    2.6506543    53.414736    39.875669 
153272000    278.22943    318.35251    282.46685   -1.8805465    1.1794497    35.885663    39.875184 
153276000    279.66402    327.75022    284.09754   -2.5218837   0.71146569    43.652677    39.886489 
153280000    284.02263     332.5498    277.82532   -2.6182561    2.0192785    54.724479    39.874248 
153284000    278.22471    330.07274    293.42027   -1.1458503   0.83449283    36.652478    39.855743 
153288000    278.20478    317.02588     284.1965   -1.7084321    1.1208029    32.829377    39.857522 
153292000    280.39803    334.38013    274.48595   -2.5159459    1.7649633    59.894179    39.875323 
153296000     264.2147     313.3527    262.47109   -1.0661439    3.3223138    50.881613    39.889173 
153300000    271.18206     330.7144    273.37333   -1.2926033    2.0451502    57.341073    39.893895 
153304000    276.88298    322.12998    294.01335  -0.70066048   0.85770748    28.116629    39.883977 
153308000    272.20582    317.83577    285.41939  -0.83713773    2.4511345    32.416384    39.897866 
153312000    270.19106     308.2366    270.75639   -1.4498825    2.7743358    37.480208    39.909971 
153316000    271.52194    314.25417    281.90791  0.084877471    2.0627149    32.346256    39.899861 
153320000    273.55253    327.98103    270.85597   -1.8234411    2.9939946    57.125064    39.895215 
153324000    275.15936    303.50152    301.01172  -0.21527999    1.2807183    2.4898016    39.885711 
153328000    264.46218    305.43505    258.83879  -0.75982388     3.443244    46.596263    39.888972 
153332000    263.79323    316.53569     279.4219   0.46340195    3.0751992    37.113789    39.901884 
153336000    269.99054    310.53033    285.33691   0.66727931     2.688776    25.193416     39.90548 
153340000    268.97325    320.23087    283.62145   -1.0530215     2.986175    36.609416    39.883435 
153344000    270.24083     322.6519    280.64344   0.35339849     2.784555    42.008459     39.88514 
153348000    273.91661    348.31697      262.979   -2.9800254    3.1924729    85.337964    39.904842 
153352000    274.46126    323.53544    294.62186  -0.43196701    1.5342112    28.913583    39.909372 
153356000    265.04078    298.25138    269.83993  0.082466293    1.7238447     28.41145    39.916349 
153360000    269.55435    309.77584    278.46926   0.13201149    2.2157633    31.306578    39.911778 
153364000    264.97477    314.52843    279.60355  -0.32228617    1.8809692    34.924879    39.911682 
153368000    276.87909    314.97465    299.79499   -1.5312346    1.2628901    15.179659    39.919871 
153372000     263.9418    313.41892    270.84121   -1.9576008    2.5057973    42.577714    39.913307 
153376000    267.05203    290.59897    287.83166  -0.31827645    2.2252234     2.767305    39.901813 
153380000    271.84316    301.75418    295.49714  -0.68340643    2.3249857    6.2570351    39.895746 
153384000    286.54155    335.75237    306.22029  -0.70759763    1.4066484    29.532081    39.900823 
153388000    271.07281    311.23038    277.54998  -0.33187004    2.9446164    33.680405    39.896693 
153392000    273.63301    307.53811    305.89795 0.0075064827     1.375998     1.640153    39.899299 
153396000    273.56165    315.85522    289.63516  -0.49879281    1.6243956    26.220055    39.893418 
153400000    261.35487    312.07899    255.41532   0.99721559    3.3776876    56.663669    39.882838 
153404000    277.61967    303.99905    300.80112    1.0680074    1.4378601    3.1979334    39.871712 
153408000    266.95107    297.44375    273.40295   0.87028409    2.5606807    24.040803    39.862959 
153412000    268.41272    314.96609    283.44192 -0.078601071    2.3917259     31.52417     39.85794 
153416000    264.85364    304.08405    280.98628   0.70224118    1.0707142    23.097774    39.844791 
153420000    265.52449    322.84508    266.60438   0.26296631     3.105241    56.240703    39.851785 
153424000    272.16654       324.76    281.92805   0.41387138    1.8296104    42.831956    39.848775 
153428000    279.73918    348.22141    272.04924   -2.0505928    3.4193192    76.172171    39.839718 
153432000    283.53558    332.54753     304.9283  -0.62967507   0.79944779    27.619235    39.840548 
153436000    274.46947    288.92523    298.74049   0.78603682    1.1152332   -9.8152651    39.834623 
153440000    272.58102    328.24755     285.4329  -0.18541648    1.5696449    42.814651    39.831417 
153444000     273.8357    325.00301    288.52821   0.25570246   0.95493894    36.474792    39.824532 
153448000    278.84348    347.56392     273.1349   -1.9658287    1.5791975    74.429024    39.831249 
153452000    276.22943    332.52269    280.70437   -1.7389609    2.0417469    51.818314     39.84849 
153456000     283.5365    342.83772    274.73476   -1.1588818    2.5782357    68.102955    39.848144 
153460000    275.20552    335.36624    283.46657    -1.778453    1.0464113    51.899667    39.842248 
153464000    269.72556    310.39233    280.92927   -1.2153818     2.158556    29.463059    39.831192 
153468000    272.28592    330.86345    270.98259    -1.395094    3.3032398    59.880861    39.826659 
153472000    266.11288    300.51106    277.95563  -0.36571626    1.5275047     22.55543    39.837526 
153476000    269.55157    328.51795     269.7852  -0.69415862    1.9023914    58.732744     39.84181 
153480000    271.75264    334.29945    258.19911  -0.94833134    3.4867128    76.100337    39.841394 
153484000     276.4772    314.01876     293.9593  -0.54115742    1.0016032     20.05946    39.831785 
153488000    280.73296    333.36227    294.55715    -1.323124   0.76004589     38.80512    39.833964 
153492000    266.80052    325.15439    271.64988   -1.3660243    1.6960749    53.504503    39.830037 
153496000    274.71961    331.84284     272.9524   -1.5652366     1.873618    58.890442    39.832874 
153500000    277.01966    308.27612    318.06233  -0.67929161   0.60142993   -9.7862066    39.825704 
153504000    263.31894    302.24757    254.56238   -0.7191339    2.6735662    47.685192    39.813516 
153508000    279.72341    339.88195    286.08165   -2.4284034    2.2656983    53.800296    39.825042 
153512000    277.22157    319.55824    293.60674   -1.4028118    1.5395489    25.951506    39.810036 
153516000    268.72468    333.64128    262.95974   -1.6954264    3.0643043    70.681541    39.798105 
153520000    270.89759    335.30648     278.9488   -2.5360967    2.5634566    56.357674    39.800315 
153524000    275.52803    322.40007    288.23673   -1.3401666    2.7400249    34.163339    39.804821 
153528000    277.25569    326.91341    292.83243   -2.6439792    1.8091781    34.080978    39.816183 
153532000    270.31054    310.82441    285.50302   -1.0480104     2.427979    25.321393    39.827526 
153536000    266.03936    319.37863    260.88563   -1.5452192    3.1057947    58.493008    39.825488 
153540000    273.29713    332.80096    264.69443   -2.2046684    4.2018643    68.106539    39.838234 
153544000     272.4364    329.57252    297.04001  -0.32521137     2.104884    32.532514    39.827203 
153548000     268.5615    331.32179     284.6571   -0.4215043    2.6783645     46.66469    39.833628 
153552000      270.435    343.61051     276.4076   -1.1301698    4.1279962    67.202906    39.841489 
153556000    267.87206    326.14994    284.38762   -1.2234563    2.6947418    41.762321    39.844649 
153560000    278.89556    322.04953    303.21254   -1.7869854    1.2167943    18.836991    39.834383 
153564000    267.78678    306.21218    281.30558    -1.150095    3.8927613    24.906599    39.844361 
153568000    261.79415    300.53486    281.47738 -0.056055459    2.9964848    19.057475    39.837368 
153572000    271.01904    313.63123    300.62813   -1.7467012    1.0194804    13.003097    39.849653 
153576000    276.92709    344.75464     290.5596     -2.09873    2.6085397    54.195033    39.847681 
153580000    278.05448    317.23325    304.38644  -0.87983186    1.9124214    12.846807    39.843507 
153584000    272.11977    330.09515    281.60422   -1.9985035     2.714306    48.490932    39.842789 
153588000    268.07283    308.25318    275.81399  -0.99901654    2.6844215    32.439187    39.844227 
153592000    271.85935    315.67762    292.23993  0.003187686    1.4368285    23.437693     39.84417 
153596000    272.18876    349.95566    265.86893   -2.9522314    3.2479426    84.086736    39.844459 
153600000     269.4107    322.07012    275.79434   -1.6681309    2.5995698    46.275787    39.846107 
153604000    271.33692    323.01067    266.75716  -0.79712098    3.4122781    56.253507    39.844532 
153608000    274.27632    311.54578    286.76734  -0.97421205    2.3144473    24.778433    39.832478 
153612000     265.8629    317.80946    268.90923  -0.77349538    3.4281817    48.900234    39.847226 
153616000    266.38052    291.46499    287.32336    0.1914178    2.1178071    4.1416292    39.841438 
153620000    269.30126    324.84077    264.55054  -0.90617026    2.8636781    60.290227    39.831907 
153624000    262.69479    311.08885    263.55803  -0.76766828    2.9630775    47.530825    39.830983 
153628000    267.18358    313.72949    277.55139   0.64228044    3.1439713    36.178097    39.824385 
153632000    275.90089    317.56076     291.3839   0.36693904    2.7058948    26.176862    39.824665 
153636000     263.6289    302.56271    288.57834    1.0375848      2.27254    13.984373    39.827086 
153640000    267.48267    315.53679    280.32709  -0.98098503    3.0267191    35.209705    39.829758 
153644000    265.99847    328.95098    281.87306  -0.62309709    2.6444824    47.077916    39.835367 
153648000    267.47431     307.8318    285.67407   0.11676693    3.3299353    22.157735    39.835621 
153652000    273.87529    311.12257    287.69378   0.46913954    2.9891261    23.428784    39.835725 
153656000    268.23955    324.85987     279.1286   -1.5684338    3.5363506    45.731264    39.838471 
153660000    272.11368    320.70651    267.95061  -0.17364694    2.4177346    52.755901    39.833106 
153664000    267.36964     309.3574    294.50916   0.62730384   0.95490253    14.848246    39.841263 
153668000    278.12354    324.60696    285.58102   -1.7098273    2.7306876    39.025946    39.850145 
153672000    279.77185    331.76566    305.97169    -1.671951    1.5894138    25.793973    39.852417 
153676000    272.83131    327.94336    289.09932  -0.73733056    1.4802116    38.844046    39.841256 
153680000    274.84515     338.2697    281.61527   -1.3209617     1.648094    56.654433     39.85401 
153684000    266.14722    314.91259    286.17926   0.28862017    1.6047636    28.733325     39.84482 
153688000    282.29367     348.6163    303.72231   -2.9258485    1.6806089    44.893995    39.841226 
153692000    268.18837    309.17234    283.14374   0.56531215     4.027923    26.028596    39.848223 
153696000    264.02008    315.61606    280.40465    1.4616752    3.5428207    35.211407    39.845178 
153700000    274.12947    330.60027    282.50895  -0.48782874    2.8777398    48.091316    39.847322 
153704000    269.68135    287.00264    307.07621    1.0888193    2.1459955   -20.073564    39.832661 
153708000    265.79598    314.94467    256.26191  -0.82054838    4.4756034    58.682759    39.832008 
153712000    272.75086    318.67911    294.20732   -1.5235528    3.0846501    24.471789     39.81742 
153716000    275.19757    329.48386    276.33959   -2.0056039    3.6082381    53.144267       39.833 
153720000    270.54604    289.21338    287.24906    0.2351879    2.4640232    1.9643158    39.822781 
153724000    271.67727    317.71461    295.66343   -1.2076901    1.2714321    22.051184    39.821388 
153728000    263.63609    315.46262    259.28114    -1.267713    3.5865587    56.181476    39.810543 
153732000    286.77257    333.82976     314.5889   -2.7930777   0.78977967    19.240861    39.818382 
153736000    265.20548     315.6515    271.03079   -2.0034515    3.0784533    44.620707    39.841714 
153740000    276.89961    313.58768    280.52988   -1.3444722    1.9313708    33.057798    39.833391 
153744000    271.06985    325.09491    262.07961   -1.3112945    3.6795662    63.015302    39.843855 
153748000    273.18836    301.28225    298.23349  -0.60959318    1.2640944    3.0487574    39.839817 
153752000    273.25557    331.75541    284.47752   -3.9808835    2.6835108     47.27789    39.842633 
153756000    264.51392     290.3527     268.6935   -0.8942339     2.818868    21.659197     39.83171 
153760000    268.76614    329.99426    276.02683   -1.4299703    3.3000983    53.967429    39.833935 
153764000     273.8861    319.61821    290.02993   -1.8497872    2.9774113    29.588274    39.834674 
153768000    261.34855    308.75877    270.03277   -1.2868081    3.7698418    38.725994    39.836632 
153772000    277.07321    311.01463    292.04349   -1.1898009    2.5023583    18.971133    39.834896 
153776000    272.36067    315.81542    287.68727   -2.0415006    3.2231603    28.128143    39.829732 
153780000    266.66775    317.46569    268.32569   -2.6820948    3.4380236    49.140001    39.829653 
153784000    266.86197    313.12466    275.19482  -0.37059353    3.0511097    37.929837    39.832209 
153788000    285.58825    364.01663    287.79055   -3.3877279    2.4971924    76.226079    39.831257 
153792000    274.48875    317.56753    284.19553   -2.4004883    2.4324855    33.371992    39.836054 
153796000    269.78813    307.62047    295.33819  -0.99548744    1.5895158    12.282272    39.835987 
153800000    272.55261    312.70464    285.31087   -1.6433542    2.0586873    27.393775     39.82865 
153804000    281.59146    338.83335    280.94524   -2.9526377    2.1306049    57.888106    39.818386 
153808000    280.38907    353.76711    273.95551   -3.7794475     2.733084    79.811594    39.812737 
153812000    268.84363    324.43817    257.28087   -1.2042484    4.0982759    67.157296    39.811286 
153816000    272.88632    311.21736    284.27171    0.1249587    1.9972921    26.945652    39.811811 
153820000    279.98127    326.18931    281.30334   -2.1421307    2.2082005    44.885975    39.818307 
153824000    285.66727    341.94831    301.53774   -2.2310825   0.81823561    40.410568    39.821651 
153828000    283.19625    336.10514    295.46104   -2.9632435    0.8671667    40.644094    39.823974 
153832000    278.69675    323.25576    277.75102   -1.8479003   0.48120088    45.504742    39.829243 
153836000    283.62163    332.30537    287.66997   -1.3906113    1.2601026    44.635404    39.827484 
153840000    276.82323    330.27626    277.24462   -2.6763171    0.2582421    53.031647    39.835839 
153844000    277.80567    324.81104    277.27589   -2.6760504    1.6134217    47.535143     39.84071 
153848000    282.20834     317.8657    265.63532   -1.4545439    2.8002131    52.230374    39.843365 
153852000    280.70993    327.13267    289.69759   -1.9043491    1.6748007    37.435077    39.850642 
153856000     266.4376    293.58236    270.20663  0.053619706    2.6846933    23.375729    39.841903 
153860000    283.64168    345.52244    288.82137   -1.0730489    1.5784255    56.701068    39.837567 
153864000    276.85503    336.04545    283.81996   -2.6531433    1.2153669    52.225484     39.83666 
153868000    282.43041    325.41077    304.07009    -2.876072  -0.18435735    21.340678    39.845366 
153872000    270.82528    308.98693    268.20509   -1.5302235    2.0076607     40.78184     39.84487 
153876000    274.59557    325.22764    271.45763    -2.372772    1.6882048    53.770007    39.852988 
153880000    275.24009    325.95704    264.59428   -1.6456035      1.92972    61.362757    39.847537 
153884000    272.50104    317.38088    283.26098   -1.0130583    2.3370949    34.119896    39.854177 
153888000    275.77435     304.2863    274.88429  -0.54463349    1.4123698    29.402003    39.852124 
153892000    279.42638    321.89571    280.52383  -0.89466109    1.7727635    41.371885    39.851241 
153896000     279.7589    352.64945     273.7077   -2.4317474    2.1299499    78.941756    39.856478 
153900000    277.30661    317.74578    275.31246  -0.25697493    1.8365825    42.433317    39.861448 
153904000    286.38682    331.06164    301.03894   -2.1221979   0.42582806    30.022695    39.866134 
153908000    282.24165    321.07474    276.03245  -0.95373882    1.0084907    45.042282     39.86442 
153912000     274.5929    324.14181    269.14876   -1.4577773    2.0707308    54.993042     39.85719 
153916000    280.85551    321.15261    289.64032   -1.1786781   0.88454382    31.512292    39.859974 
153920000    282.13987    334.55332     258.1756    -2.639729    2.3354943    76.377725    39.868963 
153924000    281.55414    330.60856    281.69707   -2.5335032    1.0827405    48.911489    39.882543 
153928000     280.9319    322.06325    299.84883   -1.4384378  -0.44769885    22.214421    39.881716 
153932000    270.67238    291.29366    293.83217   0.23524898    1.2678122   -2.5385037    39.873554 
153936000    271.76192    317.95077     257.9797   -1.2980153    2.9724087    59.971073    39.866868 
153940000    285.41639     340.7921    281.49058   -2.5167348    2.4402319    59.301516    39.872246 
153944000    281.75659     324.9484    288.28521   -1.8804016    1.8021671    36.663193     39.86499 
153948000    279.18645    323.55214    271.45971   -2.2279838     1.305268    52.092429    39.871537 
153952000     268.0678    317.82743    267.12888   -2.1549188    1.7832805    50.698555    39.876849 
153956000    275.31206    297.48033    290.52231   0.24790534    1.4422832    6.9580195    39.882216 
153960000    274.75898    323.58208    280.48029   -2.7078428    2.7848374    43.101793     39.88741 
153964000    268.72924    327.54692    252.52109   -2.2523073    2.6109756    75.025826    39.899255 
153968000    278.51476    322.44298     279.8238    -2.631692    2.5812537    42.619186    39.901785 
153972000    276.36925    312.23402    290.22862   -1.0714094    1.4920751    22.005397    39.910751 
153976000    279.46293    318.68741    292.18109   -1.0493947    2.3024827    26.506321    39.913446 
153980000    262.89354    322.16869     252.2942   -2.6764898    4.1619115    69.874492    39.918281 
153984000    280.90572    326.40279    299.13095   -2.6181673    1.5845691    27.271835    39.912502 
153988000     276.5476    323.89556    283.97857   -1.1132491    2.3280356     39.91699    39.916333 
153992000    275.91593    320.70638    275.03985   -1.3537023    2.8447885    45.666527    39.915806 
153996000    268.60894    309.23503    278.47497    -2.080409    4.1564467     30.76006    39.925136 
154000000    269.44511    327.83446    281.97165   -3.2387255    3.2121838     45.86281    39.926013 
154004000    278.87665    316.85992    289.22618   -1.5413554    2.0609205    27.633745    39.922079 
154008000    275.41874    303.27934    273.49053  -0.33968271    1.7179199    29.788807    39.923813 
154012000    267.09323    310.49622    261.45028   -0.2725983    4.1973489     49.04594    39.930382 
154016000    268.84508    316.31506    265.53769  -0.75479404    3.7276502    50.777378    39.928632 
154020000    268.64623    318.01318    274.36347  -0.45108846    3.5543074    43.649712    39.934454 
154024000    273.01022    329.35435    276.32922   -1.6845993    3.4435201    53.025129    39.939029 
154028000    268.66616    327.76014    267.78029  -0.39749125    3.8143785    59.979851    39.939616 
154032000    265.53927    288.03681    274.70316  -0.13132428    3.7441344    13.333657    39.936392 
154036000    275.73351    321.33866     265.1094  -0.89305009    4.6469642    56.229257    39.949461 
154040000     278.2175    329.07351    290.26248   -3.0356754    3.1389619    38.811031    39.947384 
154044000    277.81779    337.13259    274.57041   -3.1076564    3.7529765     62.56218    39.953236 
154048000    268.13477    310.14767     268.4943   -1.9854821    5.1582136    41.653373     39.94867 
154052000    277.44109    343.32223    278.06556   -3.3929713    3.9476034    65.256662    39.955959 
154056000    262.71067    304.31234    267.63101   -1.7332889    4.3268841     36.68133    39.956718 
154060000    272.46293    329.88983    290.26963   -2.3189335    2.6642344    39.620206     39.96034 
154064000    273.73342    327.07807    291.64566    -1.379521    2.4624624    35.432415    39.965507 
154068000     276.5511    318.99126    284.39479   -2.0465364    1.2452802    34.596468    39.963406 
154072000    270.53947    308.74039    274.25741  -0.78979614    2.6207832    34.482983    39.964604 
154076000    273.52464    333.17207    269.28903   -2.1768679    3.4379843     63.88304    39.970283 
154080000    263.16056    298.95532     265.9632   -1.6956601     3.644293    32.992123    39.980022 
154084000    265.96339    312.07402    273.44942   -1.3664954    3.5999811    38.624593    39.975633 
154088000    279.41988    322.67372    321.12414   -2.1844905   0.59946884    1.5495816    39.974152 
154092000    270.26146    324.56409    265.83268   -2.8349739    3.9272457    58.731411    39.978699 
154096000    269.77219    296.43388    282.73093   -1.0685641    2.2339462    13.702948     39.98266 
154100000    272.35635    316.82583    274.70536   -1.7519214    3.1335437    42.120472    39.986603 
154104000    270.32206    291.62126    280.27978   -1.2263128    3.1982152    11.341483     39.99201 
154108000    271.61414    315.39403    272.00064   -2.4663688    3.7128037    43.393399    39.981872 
154112000      269.566    333.50042    271.89395   -1.1904734    3.1650077    61.606465    39.983188 
154116000    276.38274    336.44327     280.7743   -2.4560792    1.5652924    55.668965    39.984859 
154120000    277.75639    317.51399    281.40199   -1.8261225    2.3273629    36.112004    39.978246 
154124000    265.84494    314.28918    274.38562   -1.8019651     3.542178    39.903558    39.981627 
154128000    278.36183    334.46037    275.63148   -2.2853392    2.8688225     58.82889    39.987068 
154132000    275.45311     330.4635    294.00831   -2.1157989    1.1555151    36.455192    39.982276 
154136000    265.37882     325.8927    266.64191 -0.094127023    3.4877196    59.250787    39.973562 
154140000    261.77665    320.99469    264.67193  -0.69790924    4.2459937    56.322755    39.965567 
154144000     277.0024    327.91639    281.32653    -2.539898     3.756262    46.589863    39.960494 
154148000    271.91321    317.33117    277.79496   -2.4204551    4.4085146    39.536202    39.959099 
154152000      267.655    304.96911    282.53822   -1.1743758    3.3762595    22.430889    39.955399 
154156000     268.9444     312.2195    283.24317  -0.40578109    3.2361405     28.97633    39.956412 
154160000    273.29608     322.6099    296.91504   -1.5597989    2.6280119    25.694856    39.964747 
154164000     270.5687    329.39388    262.95342   -1.7347689    4.7532705    66.440464    39.967342 
154168000    271.08403     318.5038    283.42369    -1.885141    4.5680463    35.080109    39.965175 
154172000    266.17126    325.17003    267.52262   -3.2955318    4.2832423    57.647402    39.963656 
154176000    269.59571     309.5577     293.6282   -1.7917105    2.9646658    15.929499    39.959015 
154180000    277.24205    321.35739    282.43166    -2.805044    2.8089665    38.925735    39.963623 
154184000    274.43824    322.57685     278.9576   -2.2780728    3.5274509    43.619254    39.962525 
154188000    273.06722     308.7736    313.88276  -0.99099532    1.4383164   -5.1091671    39.951466 
154192000    276.41136    326.05849    285.63337   -2.2191836    3.1810359    40.425118    39.960969 
[...]
167312000    273.16138    294.57275    285.25497   -32.121725    32.321823    9.3177856    40.075344 
167316000     270.8408    298.62893    283.09936   -31.396661    32.601895    15.529572    40.075613 
167320000    281.73453    320.11542    279.75224   -33.265326     33.11537    40.363176    40.074515 
167324000    270.38641    290.71002    277.85223   -32.486732    32.910714     12.85779     40.07456 
167328000    277.93646    314.67231     275.4997   -33.344927    32.974351    39.172606    40.073861 
167332000    275.65712    348.01276    262.94534   -35.342164    33.126758    85.067413    40.074046 
167336000    276.02335    314.02042    278.88212   -34.224738    33.106485    35.138293    40.074416 
167340000    274.80802    316.16331    284.31457   -32.661579    32.486067    31.848734    40.073599 
167344000    275.36596    311.07063    280.00625   -33.242014    33.255447    31.064381    40.073122 
167348000    283.45931     337.2027    293.38097   -33.756279    32.161092    43.821738    40.072753 
167352000    278.61785    307.25185     274.7216   -34.054078    32.755338    32.530255    40.073397 
167356000    277.96292    320.91252    272.43513   -34.143177    32.172099    48.477391    40.074012 
167360000    276.87595    314.56411    274.55874   -34.878417    33.071895    40.005377    40.074156 
167364000     276.1742    305.97273    264.84054   -33.855332    34.059314    41.132192    40.073549 
167368000    275.43263    309.26203    269.38289   -32.657624    34.362813    39.879139    40.073602 
167372000    286.27648    332.49238    296.17586    -34.55206    32.201541    36.316526    40.072835 
167376000    275.68406    322.87189    284.61165   -32.740097    31.794452     38.26024    40.071532 
167380000     268.1903    299.42781    272.53395   -31.215882    33.257083    26.893856    40.071738 
167384000     283.2859    341.60586    288.02756     -33.6778     32.30128    53.578294    40.071373 
167388000    275.61685    312.49773    295.43124   -32.223666    32.474622    17.066487     40.07111 
167392000     273.1643    315.26888    278.38037    -33.27601    32.687825    36.888512    40.071883 
167396000    280.45175    336.52161    283.02255   -34.428937    32.139838    53.499061    40.072308 
167400000     275.8421    320.62217     271.4026   -33.150341    33.099414    49.219563     40.07259 
167404000    276.64823    294.68102    303.47346   -31.425134    31.675784   -8.7924406    40.072516 
167408000    279.54223    324.00455    268.40802   -33.513688    32.952627    55.596538    40.073006 
167412000    281.92666    322.91637    271.97941   -33.953241    32.926742    50.936964    40.072862 
167416000    277.27084     313.9145    287.94608   -33.496464    33.062764    25.968419     40.07226 
167420000    274.51193     310.0189    272.08816   -33.798728    32.806939    37.930736    40.072252 
167424000    279.47888    332.63335    278.18006   -34.431165    32.348576    54.453287    40.073004 
167428000    277.35469     338.6448    276.90832   -34.497565    33.557696    61.736481    40.072452 
167432000    273.43062    302.91922    278.06457   -33.400487    33.622916    24.854649    40.072027 
167436000    282.93717     316.9058    295.66144   -34.633797    32.416354    21.244351    40.070566 
167440000    271.00358    301.41889    276.75898   -33.276177    32.924495     24.65991    40.070963 
167444000    288.49729    335.78013    298.14685   -35.356389    32.173252    37.633282    40.071739 
167448000    275.44376    345.67797    268.39281   -36.280384    33.750644     77.28516     40.07174 
167452000    274.83774    302.61643    265.38864   -33.339666     33.96285    37.227789    40.072249 
167456000    284.59142    329.38256    295.80688   -34.402824     32.30848    33.575677    40.072026 
167460000    269.32707    300.48995    274.34495   -32.388421    32.397422    26.145003    40.071027 
167464000    282.15284    295.10129    311.82315   -32.551532    30.320586   -16.721856    40.071384 
167468000    274.29005    324.38396    269.67705   -34.348357    32.780395    54.706906    40.069362 
167472000    283.56854    328.56611    279.77441   -33.324573    33.397657    48.791706    40.069133 
167476000    285.81037    339.69725     283.8769   -32.942257    32.104747    55.820352    40.068909 
167480000    280.25177    337.47193    265.66393   -33.651829     32.57369    71.807995     40.07006 
167484000    270.70379    317.57602    278.32817   -32.395591    31.616633    39.247853     40.07032 
167488000    276.88692    330.02423    276.41798   -34.452776    33.187235    53.606253       40.071 
167492000    284.01035    352.66233     288.3404   -35.133111    32.575952     64.32193    40.071952 
167496000    275.43833     319.5581    268.34074   -34.592266    32.815492    51.217362    40.072977 
167500000    278.32455    330.15617     261.4646   -34.072074    33.173859    68.691566    40.073017 
167504000    268.24521    312.09245    262.26337     -32.6797    33.813116    49.829074    40.073346 
167508000      279.415    334.91417    276.67024   -34.645521    33.115113    58.243931    40.074618 
167512000    274.73941    297.73361    287.34259   -32.375586    31.324371    10.391015    40.074584 
167516000    269.53892    294.99517    277.17228   -33.173267    32.630514    17.822898     40.07487 
167520000    288.22958    331.38743     321.9873   -35.117359    31.446884    9.4001283    40.074374 
167524000    280.74345    319.78054    281.24655   -35.086236    33.504083    38.533988    40.074892 
167528000    281.29852    360.46497    263.83224   -35.084861    33.258116     96.63273    40.074631 
167532000    281.15334    332.06617    271.99449    -34.45873    33.963189    60.071676    40.075378 
167536000    281.51038    344.01644    294.08776    -34.66112    33.251778    49.928682    40.075096 
167540000    276.14218    324.78678     274.8652   -34.681976    33.869625     49.92158    40.075755 
167544000     278.5261    315.34427    293.23439   -34.416228    32.927157    22.109885    40.075238 
167548000    268.70351    321.20104    274.64773   -32.191408    33.364791    46.553314    40.075405 
167552000    267.76516    319.59071     283.5062   -32.990073    32.674389    36.084509    40.075102 
167556000    281.96591     328.8536    296.40695   -33.483569    32.137045    32.446651    40.074569 
167560000    279.66168    323.09994    292.04432   -32.826738    32.793348    31.055617    40.074298 
167564000    279.76357    332.37961    288.20194   -31.652576    33.053489    44.177674    40.075047 
167568000    277.89466    302.05002    297.20626   -31.942048     32.17536    4.8437659    40.074838 
167572000    273.90755    316.24639    282.97657   -32.022296    34.723938    33.269825    40.074107 
167576000    269.65313    315.74142     268.1157   -32.897437    34.332526    47.625723    40.074969 
167580000    277.98445    320.19858    292.74272   -32.094101    33.534954     27.45586    40.074946 
167584000    260.61595    312.70449    260.57894   -32.660157    34.869298    52.125557     40.07524 
167588000    271.73278    303.80102    288.18498   -32.489094    32.786217    15.616031    40.074719 
167592000    276.62959    311.24322    281.96033   -33.354398    32.151476    29.282886    40.074811 
167596000    274.02581    314.67817    278.45082   -34.443645     32.66049    36.227346    40.074214 
167600000    274.07763    309.02357    295.54497   -31.889137     31.75116      13.4786    40.073731 
167604000    273.33743    295.34707     261.7695   -32.525596     33.22159    33.577571    40.074868 
167608000    280.98746    317.32688    284.88303   -33.440501    32.310259     32.44385    40.076157 
167612000     279.4758    314.40196    292.61135   -32.840719    33.700351     21.79061    40.076264 
167616000    276.39051    296.03977    300.47095    -33.71077    32.172528   -4.4311788    40.074284 
167620000    283.78231    324.49896    299.36836   -33.751698    32.021106    25.130601    40.075299 
167624000    284.52646    317.22655    298.29175   -32.725603    31.524943    18.934803    40.075635 
167628000    282.17302    336.97089    279.96229   -34.560618    33.664034    57.008596    40.076212 
167632000    273.15135    310.12939    277.83054    -34.66881    34.539438    32.298847    40.074863 
167636000    275.95748    350.80013    266.43074   -34.716449    34.371114    84.369385    40.073996 
167640000    273.04054     315.2661    268.33745   -32.863348    34.419096    46.928645    40.073808 
167644000    270.63185    301.13669    266.18093   -31.747912    35.190646    34.955753    40.074752 
167648000     267.4441    315.58115    266.77717   -32.708002     33.92485    48.803977    40.073966 
167652000    271.03645    305.21622    279.12397   -33.251191    33.482996    26.092249    40.073608 
167656000    273.70696    310.94633    304.13436   -33.040751    31.030035    6.8119696    40.072986 
167660000    278.54445    325.50216    288.35077   -33.636586    32.936108    37.151387     40.07413 
167664000     273.7804    323.83708    270.45337   -32.488726     33.69213    53.383711    40.074371 
167668000    275.78796    323.67335    292.49976   -32.169629    32.255652    31.173598     40.07428 
167672000    279.30802    308.25176    298.25592   -31.687333    32.392354     9.995841    40.073109 
167676000    276.73181    311.29988    299.42848   -31.416672      32.7511    11.871406    40.073334 
167680000    272.39479    336.37581    278.31718   -33.235571    31.983792     58.05863    40.073169 
167684000    263.70867    287.79583    277.67665    -30.92814    32.858643     10.11918    40.073342 
167688000    274.99205    328.12703    274.72747   -32.017885    33.515277    53.399563    40.072097 
167692000    274.08274     332.9562    289.98129   -31.979961    32.112864    42.974904    40.072438 
167696000     274.5828    322.78049    289.83038   -32.437005    32.386583    32.950112    40.071611 
167700000    275.50733    304.55254    296.69357   -30.704272    32.715528    7.8589706      40.0725 
167704000    277.63736    331.83374    292.96446   -31.946725    33.811158    38.869277    40.073438 
167708000    269.57877     326.6444    257.16134   -32.017189    34.084106    69.483059    40.073091 
167712000    278.86258    332.99233    290.59382   -32.535792    31.983562    42.398509    40.072065 
167716000    272.37515    305.83865    300.88998   -31.361095    32.896719    4.9486697    40.072111 
167720000    278.69417    322.88012    277.11001   -32.574011    33.008976    45.770108    40.071682 
167724000     276.8083    320.10814     297.1442   -32.271523    31.984931    22.963947    40.071291 
167728000    277.14167    317.22669    279.82527   -31.947518    31.953837    37.401425    40.071193 
167732000    272.46688    308.44645    272.15907   -31.369545    32.222733    36.287386    40.070899 
167736000    280.92581    346.09065    276.85429   -33.783285    32.695695    69.236356    40.070228 
167740000    270.10612    321.52379    271.60443   -32.101676    32.229004    49.919358    40.069568 
167744000    263.39848    297.56082       288.27   -30.621311    32.162775    9.2908218    40.070036 
167748000    269.31698    310.59517      270.134   -32.401932    33.852799    40.461168    40.069931 
167752000    274.78638    329.39501    281.92174   -31.861211    32.557942    47.473276    40.068607 
167756000    270.77631    324.62573    273.17535   -31.797645    33.047283    51.450382    40.069136 
167760000     264.8385    298.07238    283.70458    -30.82341    32.796585    14.367801    40.070075 
167764000    281.52319    328.97923    290.41017   -30.928249    32.272815    38.569053    40.069662 
167768000    272.48295    327.45406    278.35269   -32.054665    32.801858    49.101364    40.068945 
167772000    279.06764    344.59956    282.80992    -33.97064    31.974756    61.789644    40.067928 
167776000    265.32032    316.89639    273.47239   -32.577235     31.50792    43.423997    40.068686 
167780000    275.93316    313.81696    288.53798   -32.138093    32.357737    25.278976    40.068407 
167784000    283.47582    332.09731    307.00256   -32.160225    30.420771    25.094747    40.068421 
167788000    285.67928    348.32328    282.88905   -33.054713    31.916697    65.434235    40.067321 
167792000    269.94544    311.00968    271.30129   -30.618857    33.081746    39.708383    40.068021 
167796000    267.89571    315.74294    283.50973   -30.428193    31.029375     32.23321    40.068808 
167800000    279.00484    324.98217    276.21083   -32.082465    30.563488     48.77134    40.069426 
167804000    268.61257    310.38647    273.98631   -32.588346    32.923757    36.400155     40.07033 
167808000    275.02076    316.92503    263.51157   -31.408716    33.537992    53.413454    40.070479 
167812000    274.69914    340.62099    265.55408   -32.582553    33.154243    75.066908    40.071437 
167816000    283.10878    330.24217    282.31947   -31.080579    32.483702    47.922701    40.070814 
167820000    277.75947    307.14405     301.8132   -31.707805    31.682697    5.3308507    40.070031 
167824000    281.40038     332.1945    291.28187   -33.843182    32.833617    40.912628    40.069684 
167828000    273.06387    311.61709    265.52043    -32.57965    33.835455    46.096653    40.068828 
167832000    272.83896    331.84154    264.20974   -34.240131    33.825944    67.631804     40.06867 
167836000    272.12872    329.64881    263.49234   -33.932866    34.869448    66.156473    40.068075 
167840000    282.03661    354.23613    273.17162    -34.84618    33.876658     81.06451    40.069574 
167844000    272.95567    346.45612     253.7092   -34.370637    35.079867    92.746925     40.06869 
167848000    286.20044    318.02661    298.67266       -33.89    32.271015    19.353953    40.068271 
167852000    287.85384    340.06784    292.24931   -33.537673    32.945893    47.818528    40.068976 
167856000    273.97274     316.6754    273.76959   -32.300544    33.436634    42.905808    40.069506 
167860000    277.61569    335.01618    264.96827   -35.514693    34.026814    70.047906    40.070445 
167864000    273.90214    336.89486    274.57339   -34.786246    33.583385    62.321472    40.071684 
167868000    271.75007    307.39181    275.44063   -33.594059    33.316388     31.95118    40.070779 
167872000    267.46135    309.17869    271.74717   -33.175047       34.028    37.431521     40.07067 
167876000    277.23925    337.36078    286.46175   -34.217217    33.622779    50.899027    40.070966 
167880000    281.45949    355.36646    267.69768   -34.307699     34.63218    87.668783    40.071423 
167884000    275.56993    313.57401     277.5714   -32.582559    32.406237    36.002607    40.070918 
167888000    273.70867     319.6634    284.42197   -32.108321    32.391253    35.241428    40.071145 
167892000    269.35765    295.43724    259.19902   -31.757232    33.243827    36.238225    40.070182 
167896000    274.95359    333.01105    285.71727   -34.229695    32.578405    47.293784    40.070059 
167900000    284.44048    337.75486    274.55724   -34.823199    31.692423    63.197624    40.068953 
167904000    283.22613    331.71455    290.28127   -33.712337    31.436391    41.433285    40.068542 
167908000    276.27657    314.23333    284.04665   -32.273796    33.434978    30.186677    40.069166 
167912000    276.86351    327.26184    264.12465   -33.019801    33.410188    63.137186    40.069762 
167916000    282.52585    322.97978    294.45105   -33.661397    31.454275    28.528733    40.070748 
167920000    276.47694    327.60805    279.92444   -34.192979    32.724804     47.68361    40.069609 
167924000    288.08537    330.87552    296.49605   -34.484071    33.374632    34.379469    40.068474 
167928000    274.89037    314.17691    277.22676   -33.403303    33.582931    36.950143    40.069038 
167932000    285.08733    331.55909    274.82054   -35.309123     33.50249    56.738544    40.068336 
167936000    290.49325    351.65483    274.40493   -34.616586    33.644453    77.249899    40.067743 
167940000    271.43059    308.46976    270.87789   -34.141256     32.84646    37.591874    40.066706 
167944000    274.61707    316.90026    275.51772   -34.061224    32.851021    41.382544    40.066624 
167948000     283.1305    335.24725    277.66215   -34.958718     32.38503     57.58509    40.065333 
167952000    282.77632    356.29759    279.10197   -36.181997    32.267827    77.195621    40.064955 
167956000    281.88814    321.05634    273.33937   -34.488934    32.277553    47.716972    40.064209 
167960000    283.55559    343.10853    290.82832   -36.507463    32.416622    52.280212    40.064684 
167964000    288.62414    349.74222    273.69323   -34.836185     32.85393    76.048992    40.064582 
167968000    275.02661    292.22534    286.88876   -32.570154    33.416149    5.3365727    40.063956 
167972000    277.44506    331.74027    252.71616   -33.885713    33.390903    79.024112    40.064573 
167976000    289.00011    353.27533    285.81193   -34.494785    32.348917    67.463403     40.06421 
167980000    276.71202    313.50473    277.62574   -33.414349    32.592595    35.878986    40.064918 
167984000    270.12397    344.37479    256.52083   -33.600875    33.484162    87.853966    40.065124 
167988000    277.77752    330.67753    274.36825   -33.482791    32.824296     56.30928    40.065657 
167992000    281.63633    330.28106    291.90905   -33.026693    31.268433    38.372012    40.064538 
167996000    266.97351    301.81918    257.47932    -31.28073    32.802097    44.339856    40.064384 
168000000    281.01237    330.44676    277.19953   -33.275572    33.007958    53.247229    40.064593 
168001000    277.93084    324.81012    276.46661   -32.605522    33.826463    48.343515    40.064593 
Loop time of 21924.4 on 4 procs for 16000000 steps with 1498 atoms

Performance: 15.763 ns/day, 1.523 hours/ns, 729.781 timesteps/s
99.7% CPU use with 4 MPI tasks x no OpenMP threads

MPI task timing breakdown:
Section |  min time  |  avg time  |  max time  |%varavg| %total
---------------------------------------------------------------
Pair    | 10945      | 15145      | 19433      |3351.5 | 69.08
Bond    | 67.325     | 105.72     | 141.99     | 352.2 |  0.48
Neigh   | 121.42     | 121.48     | 121.51     |   0.3 |  0.55
Comm    | 288.03     | 4345.7     | 8462.1     |6128.4 | 19.82
Output  | 7.9983     | 8.0363     | 8.149      |   2.3 |  0.04
Modify  | 1171.9     | 1685.7     | 2230.1     | 969.6 |  7.69
Other   |            | 512.7      |            |       |  2.34

Nlocal:    374.5 ave 714 max 35 min
Histogram: 2 0 0 0 0 0 0 0 0 2
Nghost:    2370 ave 4245 max 496 min
Histogram: 2 0 0 0 0 0 0 0 0 2
Neighs:    13115 ave 25954 max 315 min
Histogram: 2 0 0 0 0 0 0 0 0 2

Total # of neighbors = 52460
Ave neighs/atom = 35.02
Ave special neighs/atom = 0.518024
Neighbor list builds = 28803
Dangerous builds = 0

write_restart FINALCONFIG
WARNING: Using a manybody potential with bonds/angles/dihedrals and special_bond exclusions (../pair.cpp:218)
Neighbor list info ...
  update every 1 steps, delay 0 steps, check yes
  max neighbors/atom: 2000, page size: 100000
  master list distance cutoff = 16
  ghost atom cutoff = 16
  binsize = 8, bins = 3 3 23
  4 neighbor lists, perpetual/occasional/extra = 4 0 0
  (1) pair lj/cut, perpetual, skip from (4)
      attributes: half, newton on
      pair build: skip
      stencil: none
      bin: none
  (2) pair morse, perpetual, skip from (4)
      attributes: half, newton on
      pair build: skip
      stencil: none
      bin: none
  (3) pair eam, perpetual, skip from (4)
      attributes: half, newton on
      pair build: skip
      stencil: none
      bin: none
  (4) neighbor class addition, perpetual
      attributes: half, newton on
      pair build: half/bin/newton
      stencil: half/bin/3d/newton
      bin: standard

#and everyone lived happily ever after, THE END
Total wall time: 6:23:02
