LAMMPS (16 Mar 2018)
#lammps script for united atom polymer simulation (full-scale run)

# 1. INITIALIZATION
#allows pair, bond, bending and dihedral interactions
atom_style molecular

  # periodic (video game) boundaries in all cartesian directions
boundary p p s

  # uses real units (instead of units based on pair potential parameters).  List of units used in manual
units metal

###########
# 2. ATOM DEFINITION
##########

   ##
   # Read in data from starting configuration file
   ##

#read_data lammps-AT-config

 #use to restart
read_restart RESTART
  orthogonal box = (0 0 -29.1214) to (20 20 152.979)
  1 by 1 by 4 MPI processor grid
  1498 atoms
  197 bonds
  96 angles
  95 dihedrals
  2 = max # of 1-2 neighbors
  2 = max # of 1-3 neighbors
  4 = max # of 1-4 neighbors
  6 = max # of special neighbors

   ##
   # Specify the nature of the bond interactions
   ##

bond_style harmonic
bond_coeff 1 19.51 1.54
bond_coeff 2 22.45 1.82
bond_coeff 3 10000.0 2.0
special_bonds lj 0.0 0.0 0.0 angle no dihedral no

angle_style harmonic
angle_coeff 1 2.683 114.00
angle_coeff 2 2.683 114.40

dihedral_style opls
dihedral_coeff * 0.06071 -0.011743 0.1363628 0.0

mass  1   14.00
mass  2   32.06
mass  3  196.97
mass  4  196.97


pair_style hybrid lj/cut 14.0 morse 14.0 eam
pair_coeff 1 1 lj/cut 0.00395 3.95 14.0
pair_coeff 2 2 lj/cut 0.01594 3.62 14.0
pair_coeff 3 3 eam Au_u3.eam
Reading potential file Au_u3.eam with DATE: 2007-06-11
pair_coeff 4 4 eam Au_u3.eam
pair_coeff 1 2 lj/cut 0.0000 3.785 14.0
pair_coeff 1 3 lj/cut 0.00258 3.44 14.0
pair_coeff 1 4 lj/cut 0.00 3.44 14.0
pair_coeff 2 3 morse 0.879 1.47 2.7 14.0
pair_coeff 2 4 morse 0.000 1.47 2.7 14.0
pair_coeff 3 4 lj/cut 0.00 2.934 14.0


group freeze type 4
100 atoms in group freeze
fix startend freeze setforce 0.0 0.0 0.0



################
# 3.  Simulation Settings
###############

neighbor        2.0 bin
neigh_modify    every 1 delay 0 check yes



# Define some variables
variable Lx          equal xhi-xlo   # Ang
variable Ly          equal yhi-ylo   # Ang
variable Lz          equal zhi-zlo   # Ang

variable dz          equal ${Lz}/30  # Ang
variable dz          equal 182.100820204/30  

variable zzlo        equal zlo  # Ang
variable zzhi        equal zhi  # Ang
variable vol         equal ${Lx}*${Ly}*${Lz}  # Ang^3
variable vol         equal 20*${Ly}*${Lz}  
variable vol         equal 20*20*${Lz}  
variable vol         equal 20*20*182.100820204  
variable TEMP        equal 300.00 # K
variable TThi        equal 320.00 # K
variable TTlo        equal 280.00 # K
variable dt          equal 0.00025 # ps

timestep     ${dt}
timestep     0.00025

variable zlo1      equal -26.0
variable zlo2      equal -11.0
variable zhi1      equal 135.0
variable zhi2      equal 150.0

# heat layers

region          hot  block  INF INF INF INF ${zlo1} ${zlo2}
region          hot  block  INF INF INF INF -26 ${zlo2}
region          hot  block  INF INF INF INF -26 -11
region          cold block INF INF INF INF ${zhi1} ${zhi2}
region          cold block INF INF INF INF 135 ${zhi2}
region          cold block INF INF INF INF 135 150
compute         Thot all temp/region hot
compute         Tcold all temp/region cold


# Second Equilibration
fix             1 all nve
fix             hot all langevin ${TThi} ${TThi}  0.005 59804  tally yes
fix             hot all langevin 320 ${TThi}  0.005 59804  tally yes
fix             hot all langevin 320 320  0.005 59804  tally yes
fix             cold all langevin ${TTlo} ${TTlo} 0.005 287859 tally yes
fix             cold all langevin 280 ${TTlo} 0.005 287859 tally yes
fix             cold all langevin 280 280 0.005 287859 tally yes
fix_modify      hot temp Thot
fix_modify      cold temp Tcold

variable        tdiff equal c_Thot-c_Tcold
thermo_style    custom step c_Thot c_Tcold f_hot f_cold v_tdiff
thermo            4000
run             800000
WARNING: Using a manybody potential with bonds/angles/dihedrals and special_bond exclusions (../pair.cpp:218)
Unused restart file peratom fix info:
  fix style: STORE, fix ID: layers_COMPUTE_STORE
Neighbor list info ...
  update every 1 steps, delay 0 steps, check yes
  max neighbors/atom: 2000, page size: 100000
  master list distance cutoff = 16
  ghost atom cutoff = 16
  binsize = 8, bins = 3 3 23
  4 neighbor lists, perpetual/occasional/extra = 4 0 0
  (1) pair lj/cut, perpetual, skip from (4)
      attributes: half, newton on
      pair build: skip
      stencil: none
      bin: none
  (2) pair morse, perpetual, skip from (4)
      attributes: half, newton on
      pair build: skip
      stencil: none
      bin: none
  (3) pair eam, perpetual, skip from (4)
      attributes: half, newton on
      pair build: skip
      stencil: none
      bin: none
  (4) neighbor class addition, perpetual
      attributes: half, newton on
      pair build: half/bin/newton
      stencil: half/bin/3d/newton
      bin: standard
Per MPI rank memory allocation (min/avg/max) = 10.93 | 11.62 | 12.31 Mbytes
Step c_Thot c_Tcold f_hot f_cold v_tdiff 
33601000     315.1623     287.8982           -0           -0    27.264104 
33604000    340.55252    265.88939  -0.36284892   0.78358162    74.663127 
33608000    335.36279    251.88541    0.3054283    2.0991148    83.477379 
33612000    324.83827    278.44244   0.19465426   0.62713385    46.395827 
33616000    317.59582    276.94485     1.381984   0.24457522    40.650975 
33620000    306.47141    293.16722    1.5991942  0.043926818    13.304188 
33624000    325.68032    286.71996   0.80218435  -0.26850458    38.960361 
33628000      330.992    297.08512   -0.2077316  -0.98267632    33.906882 
33632000    333.44604    285.75155  -0.22438214  -0.79796152    47.694488 
33636000    343.14953    284.18957   0.26566473  -0.71017574    58.959966 
33640000    328.34176    266.29803  -0.90905931   0.18933286    62.043725 
33644000    325.79259    278.50865  -0.41672631  -0.47635636    47.283941 
33648000    342.27328    282.32265   -1.1465404   -1.1910983    59.950626 
33652000    325.43955    277.49924  -0.77020338  -0.90989593    47.940301 
33656000    305.89414    279.73168   0.97682847   -1.0999153    26.162458 
33660000    317.18931    294.09699    0.8047359   -2.5574408    23.092312 
33664000     326.5928    284.20407   -1.2053051  -0.80478532    42.388736 
33668000    315.21759    285.33447  -0.11890506  -0.96355302    29.883121 
33672000    326.35724    296.05577   -0.6616659  -0.35971864    30.301468 
33676000     321.1389    294.12963  -0.51604499   0.11148272     27.00927 
33680000    309.59948    286.19276  -0.44756536  -0.25225052    23.406722 
33684000    305.93283    292.18041  -0.30823268  0.089269396     13.75242 
33688000    325.65961    275.34928   -1.8979791   0.70154315    50.310332 
33692000    303.17607    280.94083 0.0072654838   0.13781883     22.23524 
33696000    306.28765    281.55117   -0.4420011   -0.6813156     24.73648 
33700000    295.98907    282.95375   -0.7651745  0.093311207    13.035322 
33704000    311.81644     269.5748   -2.2615227  -0.36136374    42.241648 
33708000    337.84731    287.92083   -1.8895391  -0.74672657    49.926476 
33712000    322.94171    251.44175   -1.8501098    1.1471434    71.499958 
33716000    333.34949    279.00894   -4.0135581  -0.19792466    54.340542 
33720000    294.15663    267.95857  -0.63053027    0.3692387    26.198064 
33724000     291.6243    280.61554   -1.6636193   0.22772213    11.008756 
33728000    301.74063    285.46182   -1.3889991  -0.16263453    16.278809 
33732000    312.71119     271.6433   -1.7823962   0.54672139    41.067884 
33736000    303.08151    278.99437   -1.2373397   0.45235372    24.087141 
33740000    306.43853    291.24808   -1.3390106  -0.55256741    15.190449 
33744000    338.07312    293.69125   -3.4788346  -0.39054917    44.381876 
33748000    344.52033    281.26527   -3.6402203  -0.10036096    63.255052 
33752000    304.77798    274.23861  -0.50399409   0.60320108    30.539366 
33756000    306.68368    281.90642   -1.7553541  -0.79608745     24.77726 
33760000    320.74172    296.09351     -1.26556   -1.3099732    24.648209 
33764000    328.08608    284.77558   -2.3646475   0.24457266      43.3105 
33768000    321.56927    276.55081   -2.4664458   0.28783723    45.018465 
33772000    349.35193    280.79936   -3.6122185  -0.93012613    68.552571 
33776000    305.44022    276.35233   -0.5437755  -0.95907022    29.087894 
33780000     319.0458    265.63287    -1.182312   0.31457352    53.412923 
33784000    317.58979    281.53637  -0.93006816  -0.46062457    36.053427 
33788000    324.61992    262.33198  -0.87885808   0.44070898    62.287937 
33792000    315.15845    288.55438   -1.4340542  -0.21843842    26.604074 
33796000    338.41009     278.6765   -3.0494578   0.92393934    59.733592 
33800000    312.91295    280.60157   -2.3323551  -0.41191307    32.311383 
33804000    293.66915    267.52031  0.047963977    0.8601793    26.148843 
33808000    321.11428    297.81552   -1.1805253  -0.48930387    23.298766 
33812000    303.40569    269.73977  -0.50034012    1.1963903    33.665918 
33816000    308.81169    291.93773  -0.18936329  -0.29140455    16.873961 
33820000    299.86227    296.76996   0.26893953   -1.0215084    3.0923165 
33824000    343.41156    265.77466   -2.4836196    1.2946644    77.636899 
33828000    309.69416    278.17055  -0.28173088   0.93340958    31.523611 
33832000    345.56443    265.91324   -2.2695584    1.6386492    79.651185 
33836000    319.80878    264.06899    -1.619373   0.72465084    55.739784 
33840000    315.67883     298.4606   -0.9638651  -0.10960939    17.218235 
33844000    304.63247    284.59444    1.0179931   0.76019614     20.03803 
33848000    329.12299    271.77291    0.0880448    1.2283711    57.350088 
33852000    313.27941    285.31392  -0.75727175   0.61774056    27.965489 
33856000    337.32266    271.50023   -1.4987904    1.2330897    65.822424 
33860000    336.59279    284.27074   -1.5132326   0.29384908    52.322042 
33864000    329.95145    286.49809  -0.61828929  -0.33198262    43.453357 
33868000    315.17867     295.6632   -1.1420592   -0.6762184    19.515469 
33872000    327.49054    268.54624  -0.54536569    1.5811506    58.944295 
33876000    317.48078    301.30621  -0.85930923  -0.83849206    16.174569 
33880000    340.64483    284.98172   -2.9975511 -0.074033445    55.663103 
33884000    303.32042    303.31328  -0.36894215  -0.06259593 0.0071387011 
33888000    318.21555    253.10114  -0.86913631    1.6463341    65.114414 
33892000    336.25198    287.71555   -1.5638477  -0.03588621    48.536424 
33896000    317.45249    256.46716    0.3042554    1.8782366    60.985324 
33900000    323.79691    285.95606   0.52689958  -0.22740557    37.840853 
33904000    293.58907    263.95508    1.3338934   0.72490548    29.633989 
33908000    303.04391    268.95595    1.1026517   0.52821574    34.087956 
33912000    350.99432    272.12253   -1.6943797   0.31186371     78.87179 
33916000    341.13587    273.18843  -0.78772949    1.1766539    67.947439 
33920000    305.00507    264.52769    1.6429389    1.4122206    40.477373 
33924000     302.0564    284.64803    1.4668747 -0.00040707869    17.408362 
33928000    328.96366    270.22197   0.51210056   0.77479349    58.741693 
33932000    347.63478    280.84212  -0.84441148   0.89230995     66.79266 
33936000    342.25497    285.10419 -0.051085735    0.9953611    57.150781 
33940000    312.62428    273.61993  0.013226585    2.1503142    39.004349 
33944000      336.478     274.3228 -0.062169595    2.2263343    62.155196 
33948000    323.01389    275.59623    1.1467931    2.1062938    47.417655 
33952000    298.88843     289.6621   0.77949728     1.433636    9.2263344 
33956000    310.94243    274.94262  -0.33944255    2.2599968    35.999801 
33960000    326.09477    287.59907  0.021847967   0.82396048    38.495693 
33964000    349.72943    277.77742   -1.2261825    1.2080789    71.952018 
33968000    319.55454    306.34315  -0.75388818   -1.0976405    13.211387 
33972000    303.89862    280.73915  0.093575506   0.11607176    23.159474 
33976000    328.17878    296.06147  -0.86437198  -0.59947388    32.117309 
33980000    293.02752    275.66814   0.12956679   0.78821009    17.359385 
33984000    329.26362    289.49265  -0.96671631  -0.69968253    39.770972 
33988000    316.11323    292.93416   -1.3190706    0.1379325    23.179073 
33992000    297.84039    311.10461   0.29089775    -1.061842   -13.264214 
33996000    350.32496    291.91244  -0.86119282   0.19906858    58.412522 
34000000    327.29808    274.95242   -1.5885496    1.4179059    52.345658 
34004000    335.89777    298.41772   -1.5465798  -0.85857623    37.480048 
34008000    329.39271    294.73694   -2.3106789   0.21528203    34.655769 
34012000    329.65496    302.40205   -1.8333565  -0.56360859     27.25291 
34016000    322.76631    302.26196  -0.66507738   0.75308025    20.504346 
34020000    325.29352    291.87302   -1.3902592 -0.094327222      33.4205 
34024000    338.88607    293.94178   -2.7241062  -0.87751044    44.944289 
34028000    308.82429    307.30912  -0.97355789  -0.64021908    1.5151699 
34032000    298.07233    304.99131   0.37465846  -0.75287141   -6.9189848 
34036000    302.04547    287.70918    0.6080892   0.73299724    14.336287 
34040000    309.41876    263.40092   0.46263843   0.56829562    46.017842 
34044000    293.93719     286.9144 -0.0040840773  -0.68809673    7.0227898 
34048000    327.67588    261.46646  -0.49669344    2.5812332    66.209414 
34052000     313.2002    257.21882   0.50649113    1.5785433    55.981382 
34056000    323.08993    271.71899  -0.35678922    1.5857599    51.370942 
34060000    312.38267    284.93666    1.1307892    1.0730546     27.44601 
34064000    336.86372    300.15025  -0.69262139   0.86157427    36.713469 
34068000    314.81084    282.24242   0.37594627    1.4960215    32.568419 
34072000    311.13162    289.70434  -0.17251641    1.1817088    21.427275 
34076000    316.10678    271.62179  -0.19754615    2.0423903     44.48499 
34080000    335.98206     252.0535    -2.336888    2.7460354    83.928564 
34084000    338.05343    279.56146  -0.83957686    2.4734383    58.491969 
34088000    328.76029    280.81165  -0.80689748   0.65460272    47.948648 
34092000    296.14136    249.67102   0.81667711    3.2359432    46.470343 
34096000    318.08734    294.61597   -1.3251529    1.7889671    23.471366 
34100000     336.9543    268.34576  -0.62246178    2.1998358     68.60854 
34104000    331.65785    283.67778  -0.20222365    1.6047384    47.980069 
34108000    349.87752    291.06087   -1.9776509    1.7635174    58.816652 
34112000    335.52722    287.42595   -2.1943633    1.9092349    48.101264 
34116000    327.86047    282.50915  -0.99382012    1.9985171    45.351319 
34120000    322.42101    278.24305   -1.2465483     3.530997    44.177962 
34124000    353.26533    301.64644   -1.2628947    1.1677995    51.618894 
34128000    312.73301    288.86932  -0.21754949    1.5934852    23.863695 
34132000    315.24118    271.20106   0.75841658    2.1448264    44.040118 
34136000    312.05443    289.75541  -0.98337151      2.14759    22.299015 
34140000    339.55246    305.82858   -1.2230926    1.5783802    33.723879 
34144000     322.2365    267.25126   0.24391538    3.1729393    54.985243 
34148000    322.37036    273.10022   -1.1308893    3.5673917    49.270141 
34152000    327.39931    286.74971  -0.92343284    3.0012562    40.649595 
34156000    338.11319    263.73771   -2.2236674    4.2461878    74.375485 
34160000    324.25393    275.40426   -1.7985234    4.0736695    48.849673 
34164000    313.08943     278.3698  -0.82129254    3.4771434    34.719632 
34168000     308.3821    288.45549   0.79921929    2.9034309    19.926612 
34172000    314.64406    274.18408   -2.1000137    3.4547859    40.459974 
34176000    309.89562    274.31666    -1.246651    3.6837803    35.578962 
34180000    298.59961    296.46806   0.13247423    1.7598415    2.1315515 
34184000    338.51637    280.63025   -2.2838968    2.6852592    57.886118 
34188000    338.69496    286.47003   -2.4947551    1.5188153    52.224936 
34192000    327.30568    297.70685   -1.5482446    1.3851409    29.598837 
34196000    313.99029    293.90176  -0.86828131       2.4394     20.08852 
34200000    327.35481     280.7008   -1.3192154    2.3767796    46.654002 
34204000    322.06507    272.99708   -1.7969157    4.0947616    49.067992 
34208000    340.73153    285.44538   -2.0219087     2.590258    55.286148 
34212000    337.65565    294.35934   -1.9151258    2.8360006    43.296316 
34216000    336.57752    294.81198   -1.8060757    2.5770013    41.765534 
34220000    311.02792    283.60571  -0.58081975    3.0553352    27.422208 
34224000    330.72771    285.43637   -1.7319984    2.4517527    45.291347 
34228000    324.35954    295.87176   -1.4156897    2.0589934    28.487785 
34232000    339.25264    288.03424   -2.2194069    1.3454353    51.218399 
34236000    341.70855    271.51286    -2.938344    3.0008835    70.195694 
34240000    315.04894    273.43109   -1.8750817    1.9732468    41.617851 
34244000    318.30208    302.47398   -1.4346087    1.8896822    15.828099 
34248000    322.97333    288.18637   -1.5184096     2.394262    34.786958 
34252000    309.20813    279.82833    -1.051528    2.3631105    29.379797 
34256000    321.31165    294.13411   -1.2205562    2.9920905    27.177539 
34260000    325.61896    260.68618  -0.82975353    3.1572175    64.932782 
34264000     299.1839    272.92114    -1.049337    3.0400422    26.262763 
34268000    324.87499    276.82088   -2.2183963    3.2041887    48.054109 
34272000    321.07743    253.64055   -0.9416944    4.5022938    67.436872 
34276000     317.8018    272.72072  -0.69328981    2.9086377     45.08108 
34280000    310.17856    287.52149  -0.22755742    2.4047842    22.657066 
34284000    322.07615    273.46269   -1.0320382    3.0207534    48.613457 
34288000     340.2933    284.41119   -2.5350631    1.8290232    55.882113 
34292000    317.84436    300.40167   -1.7206883    1.0888326    17.442689 
34296000    321.07745    267.87626  -0.97664247    2.1833174    53.201189 
34300000    314.20016    284.96357   -2.2468107   0.92956191    29.236586 
34304000    335.51147    289.13424   -1.1592128    1.4614926    46.377231 
34308000    305.08425    270.38448   0.10626138    1.6211404    34.699768 
34312000    296.56033    268.56012   0.10293043     1.972586    28.000217 
34316000    317.86397    265.90267   -2.2705131     1.434194    51.961293 
34320000    317.70461    253.18262   -1.9518312    2.0703862    64.521998 
34324000    322.51951    276.15272   -2.8505539   0.74665583    46.366791 
34328000    326.31031    279.75346   -1.7801007    1.1867681    46.556857 
34332000    331.51107    288.37873   -2.8400054    1.7360301    43.132342 
34336000    322.09965    282.64757   -2.6397531   0.83990125    39.452083 
34340000    328.27489    269.46194  -0.97343927     2.610127    58.812949 
34344000    334.81882    267.08662  -0.79759861    2.6905686    67.732205 
34348000    318.54173    274.90555   -1.4935308    2.4618128     43.63618 
34352000    320.32867    277.34123  -0.96003295    1.0510103    42.987436 
34356000    334.35581    280.04308    -3.771042    1.3146762    54.312726 
34360000    344.99176     276.1774   -4.1739378    1.3664676    68.814361 
34364000    319.39601    273.28201   -2.0508437    2.8499137    46.114004 
34368000    321.07762    278.07022   -1.9155058    2.7583803    43.007405 
34372000    334.54919    297.29164   -3.0203908    1.1764285     37.25755 
34376000    318.72729    290.12762   -2.6848546   0.19627223    28.599677 
34380000    315.77531    282.72945   -1.9037073   0.90634815    33.045866 
34384000    337.65074    278.32813   -3.2631454    2.0742916    59.322616 
34388000    325.28222    262.89128   -1.4534367    2.7746209    62.390941 
34392000    323.92921    280.49396   -3.2072027    2.0210365    43.435252 
34396000    308.36637    273.39082   -1.9568283    1.8418057    34.975551 
34400000    301.73675    269.64824   -2.7385557    3.1219672    32.088511 
34401000    317.70704    284.62868   -1.9755773    2.0963677    33.078359 
Loop time of 1052.66 on 4 procs for 800000 steps with 1498 atoms

Performance: 16.416 ns/day, 1.462 hours/ns, 759.980 timesteps/s
99.6% CPU use with 4 MPI tasks x no OpenMP threads

MPI task timing breakdown:
Section |  min time  |  avg time  |  max time  |%varavg| %total
---------------------------------------------------------------
Pair    | 526.11     | 728.04     | 934.54     | 735.1 | 69.16
Bond    | 3.2886     | 5.1119     | 6.8586     |  77.0 |  0.49
Neigh   | 5.6963     | 5.6989     | 5.7004     |   0.1 |  0.54
Comm    | 13.219     | 207.79     | 406.42     |1347.5 | 19.74
Output  | 0.0040445  | 0.012694   | 0.018389   |   4.7 |  0.00
Modify  | 55.644     | 81.292     | 108.44     | 218.4 |  7.72
Other   |            | 24.71      |            |       |  2.35

Nlocal:    374.5 ave 714 max 35 min
Histogram: 2 0 0 0 0 0 0 0 0 2
Nghost:    2378.5 ave 4261 max 496 min
Histogram: 2 0 0 0 0 0 0 0 0 2
Neighs:    13063 ave 25896 max 313 min
Histogram: 2 0 0 0 0 0 0 0 0 2

Total # of neighbors = 52252
Ave neighs/atom = 34.8812
Ave special neighs/atom = 0.518024
Neighbor list builds = 1397
Dangerous builds = 0
unfix 1


# PRODUCTION

fix             1 all nve
fix             hot all langevin ${TThi} ${TThi}  0.005 59804  tally yes
fix             hot all langevin 320 ${TThi}  0.005 59804  tally yes
fix             hot all langevin 320 320  0.005 59804  tally yes
fix             cold all langevin ${TTlo} ${TTlo} 0.005 287859 tally yes
fix             cold all langevin 280 ${TTlo} 0.005 287859 tally yes
fix             cold all langevin 280 280 0.005 287859 tally yes
fix_modify      hot temp Thot
fix_modify      cold temp Tcold

variable        tdiff equal c_Thot-c_Tcold
thermo          4000

dump gigo all atom 4000 dump.cords_xyz.dat
dump_modify gigo scale no
dump vfgigo all custom 4000 dump.velo.dat id vx vy vz fx fy fz

# thermal conductivity calculation
# # reset langevin thermostats to zero energy accumulation
#
compute         ke all ke/atom
variable        temp atom c_ke/1.5/0.00008617333262

fix             ave all ave/time 100 40 4000 v_tdiff ave running
thermo_style    custom step temp c_Thot c_Tcold f_hot f_cold v_tdiff f_ave

#compute         layers all chunk/atom bin/1d z lower 0.05 units reduced
compute         layers all chunk/atom bin/1d z lower ${dz} units box
compute         layers all chunk/atom bin/1d z lower 6.07002734013333 units box
fix             2 all ave/chunk  100 40 4000 layers v_temp file profile.langevin

run             16000000
WARNING: Using a manybody potential with bonds/angles/dihedrals and special_bond exclusions (../pair.cpp:218)
Neighbor list info ...
  update every 1 steps, delay 0 steps, check yes
  max neighbors/atom: 2000, page size: 100000
  master list distance cutoff = 16
  ghost atom cutoff = 16
  binsize = 8, bins = 3 3 23
  4 neighbor lists, perpetual/occasional/extra = 4 0 0
  (1) pair lj/cut, perpetual, skip from (4)
      attributes: half, newton on
      pair build: skip
      stencil: none
      bin: none
  (2) pair morse, perpetual, skip from (4)
      attributes: half, newton on
      pair build: skip
      stencil: none
      bin: none
  (3) pair eam, perpetual, skip from (4)
      attributes: half, newton on
      pair build: skip
      stencil: none
      bin: none
  (4) neighbor class addition, perpetual
      attributes: half, newton on
      pair build: half/bin/newton
      stencil: half/bin/3d/newton
      bin: standard
Per MPI rank memory allocation (min/avg/max) = 12.22 | 12.33 | 12.44 Mbytes
Step Temp c_Thot c_Tcold f_hot f_cold v_tdiff f_ave 
34401000    277.90375    317.70704    284.62868           -0           -0    33.078359            0 
34404000    276.49568    336.22625    259.05086   -1.9313351    1.4911443    77.175395            0 
34408000    281.55755    335.79208    264.75583    -1.722914   0.75162948    71.036256    35.546245 
34412000    282.28035    324.71219      296.391    -1.440216   -1.2214735     28.32119    36.997425 
34416000    275.99139    320.43085    287.18172   -1.6621628   0.78045174    33.249129    38.526675 
34420000    271.46166     304.5768    295.36977  -0.52166887  0.078191862    9.2070277    38.193405 
34424000    283.88053    325.41163    268.87251   -1.7262446   0.25423037    56.539115    39.456066 
34428000    283.14455    330.98856     288.7154   -2.1249363   -1.3007395    42.273161    39.135905 
34432000    278.47102    335.77658    278.02914   -2.5077606  -0.57510485    57.747441    39.504245 
34436000    283.35682    347.79658    269.92959   -2.3887946   0.10469681    77.866985    39.937258 
34440000    273.24543    329.87741    261.27221   -2.9851277    1.0492309    68.605201    39.964373 
34444000     279.1429    325.20685    284.10641   -2.3385113  -0.58255967    41.100443    39.826281 
34448000    282.17731    343.02761    275.55731   -2.3917894  -0.28123154    67.470297    39.946391 
34452000    280.80903    323.30867    273.33338   -1.6362135  -0.33757187    49.975294    39.617611 
34456000    266.67074    306.28295    280.12214  -0.13484667  0.047881398    26.160815    39.532905 
34460000     281.2185    313.11191    273.90079  -0.62374261   -0.9880439     39.21112     39.62111 
34464000     282.2261    322.36671    287.06824    -1.539671  -0.58508768     35.29847    39.303503 
34468000     279.1597    311.26488    286.92815   -1.1286439  -0.18890366    24.336725    39.589053 
34472000    286.93644      326.255     298.9913   -1.7711196   -1.0463128    27.263695    39.464998 
34476000    273.33602    326.26906    266.80614  -0.63797546   0.82426619    59.462917    39.570022 
34480000    277.94895    304.22321    297.73312  -0.50651782  -0.63137078    6.4900874    39.623681 
34484000    277.83903    318.06954    278.58438  -0.38086628   0.87817101    39.485162    39.493951 
34488000    276.25652    334.32611    260.68909   -2.0966944    1.2884076     73.63702    39.582342 
34492000    272.48203    309.94718    278.68537  -0.25248417    1.1887314    31.261808     39.52394 
34496000    270.23052    309.02164    272.04804  -0.17781282   0.36805526    36.973598      39.5459 
34500000    271.75277    311.80336     282.8128  -0.72305521    1.0620502    28.990562    39.587263 
34504000    277.71188    327.07221    271.90421  -0.78855506   0.18925419    55.167994     39.73816 
34508000       275.72    317.90834    292.42164  -0.71253989  -0.87967077    25.486706    39.752512 
34512000    273.50548    304.35072    265.56546   0.17549492  -0.34497028    38.785264    39.634024 
34516000    274.29737    321.71619    284.25564   -2.5181783   0.18853445    37.460558    39.483566 
34520000    273.97373    315.80248     278.1289   -1.4316092  -0.84505458    37.673575    39.612103 
34524000    273.65545    299.67185     265.0118  -0.71116501  -0.64331405    34.660051    39.688877 
34528000    275.91271     307.5993     275.0553  -0.24127472  -0.22065368    32.544002    39.623105 
34532000    278.92857    334.58321    275.01013   -2.5420371 -0.099575069    59.573089    39.667435 
34536000    271.54767    317.57458    280.62874  -0.98431712   0.16047814    36.945836    39.694448 
34540000    271.81984    297.67032    287.93486   0.45531371   0.10874185    9.7354629     39.58351 
34544000    277.76686    337.20729    280.32645   -1.8002357   0.21050223    56.880839    39.655367 
34548000    276.66569    338.88665    266.09984   -2.4669044   0.31380614    72.786816    39.608952 
34552000     278.3614    329.88047    272.41224    -1.538226  0.041875039    57.468233    39.608514 
34556000    270.61367     300.4815    291.14334  -0.39748223  0.054748754    9.3381558    39.710198 
34560000     270.4342    315.71256    268.86478    0.4143068    1.0874372    46.847779    39.745513 
34564000    272.76363    327.55682    296.84333   0.24626798  -0.60595138    30.713486    39.719756 
34568000    276.66012    300.51577    303.43535   0.42718199   -1.4978176   -2.9195875    39.729879 
34572000    278.35074    342.96945    261.25436   -1.5941461  0.027594303    81.715088    39.749951 
34576000    275.79577    308.97019    287.98968   0.29610497  -0.14332324    20.980508    39.718546 
34580000    277.86562    298.22414    287.65589  -0.50122263   0.20576867    10.568256    39.813209 
34584000     274.5915    317.11796    280.12349  -0.46655772   0.49262773    36.994471    39.826268 
34588000    276.89413    311.25891    301.45423  -0.17144834  -0.30870317    9.8046796    39.880669 
34592000    276.32048    336.39406    278.65156  -0.88597286    2.1002544    57.742501    39.745735 
34596000     286.9419    335.45649    297.66077   -2.1250753   0.94687991    37.795721    39.791765 
34600000     272.0861    328.39698    269.22251  -0.53728512   0.92654445    59.174469    39.741332 
34604000    275.69164    308.31309     291.6164   0.30624686   -0.5698361    16.696689    39.682567 
34608000    273.26987    331.19595    278.08912   -2.4230588   0.65410195     53.10683    39.689883 
34612000    275.33095    304.54409    265.72916   -1.2932629    1.4576457     38.81493     39.70337 
34616000    271.03008    321.84218    290.91095   -1.4909547  -0.01689289    30.931232    39.756606 
34620000    273.19341    314.64168    273.20269   -1.0247719   0.91102773    41.438992    39.763517 
34624000    281.28936    326.39846    287.38164   -1.7368547    0.2353659    39.016816    39.790489 
34628000    272.34299    316.23497    269.31147   -1.4384518    2.0208146      46.9235    39.836398 
34632000    270.44142    331.15506    253.54532   -1.4639631    2.4848478    77.609739    39.868451 
34636000    270.20297    312.55338    273.25001 0.0025199414  0.088243958    39.303368    39.862306 
34640000    271.66072    310.06109    286.95635   0.55685073 -0.017681657    23.104744    39.882996 
34644000    269.08556    330.11708    267.41003  -0.48111786   0.69273338    62.707043    39.866726 
34648000     278.9922    334.09175    282.03927   -0.5652022   0.86879002    52.052483    39.904699 
34652000    275.21828    328.05866    290.73704   -1.6052507  -0.10365532    37.321625     39.89569 
34656000    272.25492    314.19763    274.70421  -0.16193489    1.7407317    39.493416     39.89347 
34660000    273.50747    317.33253    275.22813  -0.47413395    1.3954141    42.104393    39.918253 
34664000    279.98897    352.56249    276.12096   -2.0237944   0.89997268    76.441527    39.963187 
34668000    267.96423    311.41297    292.02941   0.35867959    1.5941267    19.383552    39.956609 
34672000    279.86356     341.5155    278.17216   -1.0169317    1.2656914    63.343339    39.952116 
34676000    266.75552    318.05298    275.25002 -0.088693106    1.4727027    42.802954    40.051777 
34680000     269.7369    319.79141    272.03771    -0.671149    1.1031093    47.753701    40.026843 
34684000    279.07202    341.91028    283.89981    -1.558699   0.50864635    58.010477    40.014196 
34688000    282.04026    351.98497     289.5615   -2.3410575   0.69882388    62.423472    40.033375 
34692000     277.4557    330.56199    282.36298   0.49118374    1.8789563    48.199012    40.056756 
34696000    263.47974    302.57881    257.53134  -0.57788826    1.6175055    45.047474    40.088966 
34700000    267.82134    328.04872    269.25067  -0.82749107    1.3444803    58.798045    40.111431 
34704000    265.69529    305.26733    289.26959   0.95433507   0.68567482    15.997743    40.139004 
34708000    268.34998    313.45473    265.57346   0.53591322    1.3119981    47.881268    40.135291 
34712000    272.74101    311.94338    283.30996    1.0907509   0.10800829    28.633425    40.109688 
34716000     271.0392    314.28696    264.94372    1.0357657    1.6810533    49.343235    40.081156 
34720000    274.43981    326.04997    269.61737  -0.49377012   0.49660457      56.4326    40.081868 
34724000    268.55331    312.78611    265.50706   -1.2377129    1.6382146    47.279054    40.154648 
34728000    276.93663     342.5164     280.0538   -1.7513573   0.49831068    62.462599    40.168825 
34732000    277.16323    332.07975    273.27836   -0.7536153   0.44353225    58.801391    40.253404 
34736000    285.72547     328.6221    289.97927  -0.74810984  -0.45489953    38.642827    40.251576 
34740000    282.75232      344.124    269.19573    -1.823084    1.0783592    74.928264    40.272941 
34744000    277.11822    327.16323    283.10744   -1.7666412   0.51199795    44.055791    40.319934 
34748000    280.27465    308.26557    297.66934   0.42175198  -0.48824915    10.596232    40.323416 
34752000    270.65731    311.14265    259.23875  -0.30873058    1.5558309    51.903899    40.353049 
34756000    276.10126    347.14305    261.46835   -1.6141359    1.1849198    85.674703    40.389708 
34760000    286.13467    336.77899    278.48354   -1.4512122    1.1825759    58.295456    40.430143 
34764000    283.80748    331.18573    295.78114   -1.0428826  -0.46446837    35.404588    40.415686 
34768000    275.03124    311.83594    281.19898  -0.96670553  -0.14413202    30.636966     40.38513 
34772000    270.36484    320.03445    262.57877    -1.619276    1.2966455    57.455681    40.373522 
34776000     271.4587    314.75911    260.07387  0.067709783    1.7113197     54.68524    40.373239 
34780000    278.95958    291.71851    294.28067  -0.36455447  -0.35868546   -2.5621624    40.379494 
34784000    272.40646    307.53449    295.19602  -0.71836422  -0.56184779    12.338466     40.36721 
34788000    276.88974    334.37636    273.36657    -2.499701    1.2881141    61.009786    40.372971 
34792000    275.83756    293.57334    296.61409  -0.83598618  -0.36702999   -3.0407454    40.406027 
34796000     275.4116    329.80884    273.62311   -2.0396145   0.83230307    56.185735    40.400381 
34800000    270.90426    310.20098    261.71384   -1.1502857    1.6651809    48.487133    40.395476 
34804000    273.76223    322.99003    274.90355   -2.6468893    1.2290843    48.086479    40.381085 
34808000    282.37197    341.32218    304.70064   -2.9952927  -0.75156366    36.621546    40.369187 
34812000    278.06828    313.94787    277.06238   -1.2103336  -0.53904498    36.885497    40.375243 
34816000     277.2094    319.71795    266.77197   -0.8185231    1.7033048    52.945976    40.383165 
34820000    282.06314    322.63259    281.89121   -1.1656823  -0.47714983    40.741381    40.355847 
34824000    284.14988    335.66158    290.63636   -2.4862519  -0.53697722    45.025212    40.361058 
34828000    279.83695    313.19194    301.35121   -1.2231583   -1.1455501     11.84073    40.329057 
34832000    276.06139    309.08498    296.89496   -1.2753861   0.62568869    12.190025    40.261077 
34836000    275.28566    305.98192    276.12239  -0.37300299    1.0495401    29.859531    40.269192 
34840000    280.39445    334.71706    283.78292   -1.3942463 -0.062146707    50.934142    40.262521 
34844000    271.07468     306.1275     283.7924   -1.7166583  -0.43489384    22.335103    40.236132 
34848000    285.27765    333.97564    287.39099   -1.5224659   0.77571998     46.58465    40.244664 
34852000    274.61845    327.46831    251.89118   -2.2434921   0.71317747    75.577133      40.2572 
34856000    278.79901    343.94546    259.03839   -2.3727328    1.2767945    84.907069    40.254036 
34860000    278.41071    307.75287    292.68223  -0.45987164  -0.50015661    15.070639    40.259873 
34864000    280.99567    302.50737    285.59763   -1.0949951   0.48709323     16.90974    40.241274 
34868000    270.01304    314.21656    285.95658  -0.20648829    1.2295095    28.259981    40.211587 
34872000    276.24395    308.31987    295.97352   -1.1096611  -0.35177276    12.346357    40.236288 
34876000    277.10299    291.10009    312.07465   0.84493622   -0.8893247   -20.974562    40.232226 
34880000    276.68762    352.14915    258.15439    -2.611852    1.9374065    93.994756    40.179374 
34884000    276.55158    324.54932    294.13933   -1.6034461  0.078848065    30.409996     40.17533 
34888000    280.26437    327.54669    293.61119   -1.4828882   -0.6745912    33.935499    40.139852 
34892000    271.25274    301.65773    273.46833  -0.31897884    1.9575232    28.189396     40.14706 
34896000    272.29916    336.98142    268.69363   -2.2511154    2.2896758     68.28779    40.167096 
34900000    280.76276    341.79873    285.96423   -1.8906313 -0.085550443    55.834504    40.165784 
34904000    275.29678    313.97961    286.58283   -1.0654479  -0.70679397    27.396779    40.148473 
34908000    279.32483    319.93143    286.92844   -1.2224493  0.026595312    33.002984     40.10025 
34912000    273.22958     312.8093    277.05875  -0.65147687   0.84708898    35.750553    40.104807 
34916000    270.90068     312.5653     274.5409  -0.38140164    1.7786126    38.024394    40.119331 
34920000    287.93134    340.99796    268.26131   -1.9662588    2.9036926    72.736643    40.144548 
34924000    274.89321    307.00316    269.48814   -1.0969226    0.8299163    37.515028    40.136741 
34928000    284.35536    335.42502    275.40665   -3.3634194   0.82755545    60.018371    40.123254 
34932000    279.91705    314.24644    286.53753   -1.4707058   0.45996022    27.708912    40.104175 
34936000    277.17035    314.19731     276.0057   -2.6887608 -0.042845585    38.191611     40.09317 
34940000    278.50051    312.64936     290.9479   -2.5517242    0.3597983    21.701455    40.087871 
34944000     273.5888    333.82061    265.66725   -3.7993445     1.924785    68.153358    40.122327 
34948000    275.03986    327.38782    271.00972   -3.7188081    1.3142471    56.378101    40.117982 
34952000    282.48873    336.19186    280.94646   -2.9652385    2.4456748    55.245403    40.118593 
34956000    278.69128    325.48089      274.374   -2.5581987     1.735705    51.106885    40.077854 
34960000    279.92058    325.39012    283.75894   -2.8174486    2.1569985    41.631176    40.049034 
34964000    275.99468    311.88948     273.7016   -1.1825713    1.6377507    38.187878    40.030654 
34968000    281.50939    304.25595    294.45396   -1.1633521   0.38570934    9.8019917    40.080791 
34972000    276.67417    343.47279    263.81394   -4.4406632    1.5855773    79.658856    40.075928 
34976000    271.47374    292.51394    275.69978   -1.3438742 0.0091803666    16.814165    40.054041 
34980000    283.94319    325.47117    289.73301   -3.4830826  -0.45442328    35.738159    40.075871 
34984000    277.80237    318.39016    280.48725   -3.5860652     1.606724    37.902914    40.039864 
34988000    279.51041    309.77809    285.60339   -2.7734941   -0.4846849    24.174705    40.044285 
34992000    278.44487    294.31116     301.7194   -2.1245639   -1.1688476   -7.4082384    40.025666 
34996000    289.65403     322.7364    291.88021   -3.8041839  -0.39352286    30.856186    40.050293 
35000000    280.88091    320.94489    268.81157    -3.410408   0.62612748    52.133311    40.084136 
35004000    278.48319    317.62865    275.67945    -3.764561    1.6426477    41.949194    40.097694 
35008000    278.70133    328.73068    296.53083   -4.6708895   0.75196213    32.199846    40.057969 
35012000    279.37585    313.64713    292.60711   -2.7302975    1.7674284    21.040018    40.085195 
35016000    273.99276    314.94425    291.87531    -3.458659     1.453147    23.068943    40.077817 
35020000    279.81309    322.85666    280.02664   -4.2466937    2.7398362    42.830012    40.087035 
35024000    277.62349    321.84709    284.95248   -4.3339226    2.7228087     36.89461     40.07121 
35028000    272.84649    303.13295    275.48479   -3.2648354    2.4963594    27.648157    40.073552 
35032000    281.29993    301.72219    290.40043   -3.4506163    1.5226266    11.321765    40.058825 
35036000    279.91682    342.37801    275.82081   -4.2668541    2.0111351    66.557204    40.055605 
35040000    270.04462    317.28708    263.05418   -4.8082735     2.788659    54.232904     40.05491 
35044000    278.13128    321.75193    276.34021   -4.0453044    2.2698902    45.411721    40.022868 
35048000    275.11769    329.27045    269.40458    -4.180737    1.9918522    59.865872    40.019338 
35052000    287.94649    330.45255    295.02796    -4.690927   0.54464906    35.424594    40.045244 
35056000    283.98688    327.75403    299.13127   -2.8511122     2.135327    28.622763    40.087986 
35060000    276.04174    323.35937      275.087   -1.8686754     2.067815    48.272364    40.086206 
35064000    272.94812    312.70801    272.64448   -4.0069605    3.5240046    40.063529    40.095389 
35068000    272.02638    311.47043    267.79717   -2.8085774    3.5864983    43.673262    40.108849 
35072000    265.05959    313.01143     269.2859   -3.7006752     2.415141    43.725527    40.135541 
35076000    275.95577    313.42789    287.70518   -3.8700424    2.5550409    25.722716    40.133408 
35080000    276.93655    310.33883    299.80786   -2.4558254    2.1412642    10.530978    40.152899 
35084000    278.40172     323.2309    280.46971   -2.6557899    2.0751436     42.76119    40.136296 
35088000    273.21153    312.23632    271.03762   -1.3354183    2.8046799    41.198697    40.134983 
35092000    276.99993    330.01383    289.93124   -1.8315957    2.3409351    40.082593    40.132316 
35096000     273.9233    321.66803    276.71818   -2.5793404    3.6734763    44.949849    40.109127 
35100000    268.31596    297.15916    290.68663   -1.9689929    3.2902834    6.4725301    40.141006 
35104000    272.51761    319.13012    285.63426   -1.9488042    3.6454717    33.495863    40.121616 
35108000    278.66954    351.27031     281.1445   -4.3781869    2.3861932    70.125806     40.11346 
35112000    270.54132    322.34088    263.55523   -1.9073259    2.8193276     58.78565    40.131267 
35116000    273.03472    319.20394    285.14831   -2.8403707    1.9266036    34.055629    40.131003 
35120000    278.00815    338.84374    257.99906   -3.4316733     3.091606    80.844681    40.117308 
35124000    284.57029      339.365     277.9641   -4.0431159    2.2406105    61.400901    40.122634 
35128000    275.76041    324.15886    282.72826   -4.7774639       2.3385      41.4306    40.127573 
35132000    280.88611    326.91161    297.20287   -3.9647537    1.8809839    29.708741    40.119144 
35136000    273.69247    310.09437    269.93899   -3.2346939    3.0028074    40.155377    40.136042 
35140000    275.80423    314.60938    262.55889   -4.0496099    4.4152401    52.050486    40.103185 
35144000    281.47902    339.15996    286.30211   -4.4667069     3.508138    52.857857     40.11701 
35148000    279.14812    319.88946    279.17181   -3.8241122    4.1623222    40.717643    40.116346 
35152000    273.85781    316.83077    292.32255   -3.0199818    2.2772367    24.508228    40.091002 
35156000    277.08873    331.85489    279.31571   -5.2038724    2.4615871    52.539183    40.075913 
35160000    276.47423    340.87557    269.26393   -3.7532305    2.4650124    71.611649    40.086178 
35164000    273.81963    312.22853     271.6284   -2.7450412    2.6920319     40.60013    40.117877 
35168000    275.11826    326.64247    286.32246   -2.8997651     2.044217    40.320012    40.111788 
35172000    280.10941    331.27516     286.3317   -3.4126085    2.8316686     44.94346    40.121421 
35176000    277.26817     301.5887    301.71758   -2.6165254    1.4608602   -0.1288725    40.110514 
35180000    272.24686    316.54938     291.0657   -3.1196541    2.7778707    25.483681    40.115323 
35184000    267.89824    315.50498    265.85139   -2.3753863    3.6938848    49.653593     40.10169 
35188000    271.52107    325.38393    294.98989   -1.4610144    3.9160615    30.394031    40.095559 
35192000    273.55538    316.64649    281.99223   -1.6200776    3.3026597    34.654261    40.091077 
35196000    272.64312    335.31204    273.17952   -3.4260585    3.9110433    62.132525    40.109704 
35200000    268.07776    328.66151    254.58998   -3.3500733    5.4409815     74.07153    40.117549 
35204000    270.21487    308.83602    283.89174   -1.5906634    2.6687059    24.944279    40.111661 
35208000    272.47973    312.14493    294.34022   -1.6276108    2.0965555    17.804715    40.099161 
35212000    268.98463    315.75921    273.19798   -2.0400173    3.3646321    42.561227    40.112898 
35216000    273.97067    320.56471      283.292   -3.4565572    3.5403501    37.272709    40.107148 
35220000    272.90692    342.30704    283.78306   -2.9098485    3.2026429    58.523983    40.108204 
35224000    277.13659    326.15141    300.03786   -2.7175597     3.392876    26.113547    40.113553 
35228000    264.95243    329.35225    251.40675     -2.50962    5.0417438    77.945497    40.119319 
35232000    271.30206    323.20635    286.10457   -2.7277998    4.4225496    37.101776    40.086269 
35236000    264.19921     297.5118    287.27086    -2.791549    3.2565793     10.24094    40.095204 
35240000    267.91516    340.69064    263.15331   -3.2387321    4.7999674    77.537329    40.093159 
35244000     259.6187    308.40715    250.45483   -1.6162745     4.621268    57.952319    40.102265 
35248000    274.21534    328.04301    305.15707   -3.0630671    2.5449634    22.885937    40.092497 
35252000    273.86613    348.71739    271.20402   -2.9975485    4.1439508    77.513372    40.094643 
35256000    267.75435    309.98876    290.46178   -2.4709457    3.4254876    19.526976    40.084885 
35260000     280.5082    329.14859    302.42729   -3.5961288    2.3151984    26.721303     40.09693 
35264000    261.81702    306.93199    280.45336   -1.5911784     3.938738    26.478635    40.118301 
35268000    269.72683    299.43932     301.4554  -0.89594385    2.5964104   -2.0160798    40.112044 
35272000    265.94924    326.52809    270.50847   -2.4599198    4.3934054    56.019623    40.110671 
35276000    266.53598    309.23897    254.88252   -1.2072635    4.4647696    54.356442    40.104926 
35280000    267.38553     312.7932    268.52182   -2.7106513     4.927683    44.271379    40.107032 
35284000    262.73371    279.38503    291.41888  -0.30500249    3.6255706   -12.033844    40.085466 
35288000    282.07322    342.35992     297.8931   -2.5174695    2.7120647    44.466822    40.086291 
35292000    269.53518    325.30176    274.38163   -2.5726463     5.311154    50.920132    40.092107 
35296000    259.74533    280.25864    275.45276  -0.62156041    4.0554976    4.8058828    40.092807 
35300000    266.87327    319.81535    258.23035   -1.8590947    5.2118168    61.584998     40.09188 
35304000    271.15115    315.40208    259.42666   -3.0487519    4.9080684    55.975416    40.121196 
35308000    272.79137    333.43056    262.52711   -1.6397303    4.6897759    70.903449    40.139255 
35312000    274.44305    324.07196    287.66218   -2.3007183    3.6601948    36.409775     40.14286 
35316000    270.03298    330.14315    285.86815   -2.7973485    4.4605379       44.275    40.152828 
35320000    273.01175    330.84425    288.69463   -1.7569456    3.3799903    42.149613     40.15393 
35324000     261.3144    301.82944    265.82669   -1.8862153     4.503847    36.002754    40.156134 
35328000    257.14574    303.32359    267.65649   -1.1328327    4.9186243    35.667098    40.157228 
35332000     265.9063    307.40133     281.0935   -2.5364174    4.8612922    26.307837    40.145816 
35336000    263.73145     292.1471    270.66926   -1.8926782    5.4314327    21.477839     40.18369 
35340000    276.96071     344.4989    292.51144   -3.4124044    4.5690984    51.987463    40.181984 
35344000    270.41296    319.58977     276.9868   -2.1169734    5.3108159    42.602968     40.16494 
35348000    275.50777    329.96754    293.96734   -2.7116067    3.7711476    36.000196    40.179033 
35352000    264.24923    324.01754    271.58719   -3.1736999    4.7743191    52.430355    40.180624 
35356000    266.15681    337.16739      269.144   -3.0900163    5.3653906    68.023391    40.185558 
35360000    270.09157     339.4652    270.48896   -3.7409649    5.3815532    68.976238    40.182799 
35364000    274.85885    322.40143     282.4335   -3.6997813      4.78018    39.967924    40.194276 
35368000    270.82222    325.01235    281.24436    -2.989876    5.3550438    43.767992    40.181104 
35372000    270.95869    311.12196    280.44908   -2.2694304     3.775328    30.672882    40.174491 
35376000    268.41209    333.14995    278.71911    -3.023635    3.0463378     54.43084    40.163384 
35380000    274.63382     320.1468    287.62542   -3.5228457    3.9680125    32.521371    40.150939 
35384000    267.04164    309.82249    281.21465   -2.5767128    4.7036985     28.60784    40.145349 
35388000      275.859    333.27094    289.22743   -3.1210843    2.7017207    44.043512    40.140813 
35392000    273.93118    319.80737    284.56208   -2.3873546    3.2225012    35.245291    40.129648 
35396000    270.46023    309.31538    276.48493   -2.5334563    3.6010125    32.830453    40.117866 
35400000    267.62709    301.58501    272.81586   -1.1296737    4.1909501    28.769149    40.122465 
35404000    277.47749    346.25265    288.90572   -4.5948619    3.2324315    57.346929    40.120716 
35408000    273.07834    326.52792    280.03158   -3.6424799    3.8368838     46.49634    40.126099 
35412000    274.06257    324.37125    284.67071   -3.0737092    2.8376649    39.700542    40.107323 
35416000    271.58713    301.27929    291.26495   -2.0876087    3.6029931    10.014343    40.112622 
35420000     275.3542    340.89261    264.13304   -6.3171911    4.5109118     76.75957    40.098582 
35424000    278.25501    327.39497    274.33156   -4.3128221    4.4581233    53.063404    40.096299 
35428000    282.29973    351.07682    278.15196   -4.1175654    3.5018668    72.924861    40.077618 
35432000    281.06826    339.71304    294.20983   -3.6398013    3.1116918    45.503215      40.0876 
35436000    282.32685    337.43808    290.28901   -4.3807191    2.9347984    47.149065    40.079205 
35440000    272.20849    322.51792    278.17881   -3.8545351     3.962244     44.33911    40.088707 
35444000    272.45953    328.96184    285.27372   -4.0548934    3.6902227    43.688127    40.071684 
35448000    274.10362    323.44395    266.78677   -2.9961553    3.6368012    56.657187    40.075612 
35452000    277.57437    326.46762    276.46045   -3.8573188    2.9738147    50.007171    40.071583 
35456000    275.93328    344.88883    259.57309   -4.8825107    3.8575807    85.315733    40.064685 
35460000    275.79666    327.11114    288.85541   -3.3719869    3.3139764    38.255732    40.057288 
35464000    279.66586    314.38356     293.2425   -2.6263758    3.1805111    21.141059    40.048928 
35468000    279.30189    330.57908    287.29232   -3.2766772    3.5269699    43.286753    40.037826 
35472000    275.86416    330.28516    267.00596    -3.437028    3.5518056    63.279202    40.041435 
35476000    277.92615    320.48269    279.56768    -3.368016    3.7374826     40.91501    40.038384 
35480000    279.42218    331.75582    283.86278   -3.3150266    3.1246058    47.893045     40.02813 
35484000    265.07571    309.50308    272.91915   -3.5052504    4.3753314    36.583934    40.040196 
35488000    272.52008    326.81617     278.2836   -3.6339162    3.2500545    48.532567    40.034407 
35492000    278.26172     349.0019     277.5182   -4.3341061     3.376772    71.483704    40.038369 
35496000    286.96305    340.57943    317.83123   -3.4269517    1.6051482    22.748205    40.040763 
35500000    271.34219    319.89795     285.3767   -2.9753278    3.4000104    34.521252    40.028528 
35504000    278.31424    332.21816    271.49867   -3.6839559    3.3237894    60.719489    40.021718 
35508000    276.38138    327.15774    283.26011   -3.1646097     3.278256    43.897621    40.016987 
35512000    272.25248    308.55474    301.17933   -2.3092559    2.4416217    7.3754079    40.023815 
35516000    266.17816    309.25457    248.11531   -2.6669657    5.0630283    61.139261    40.027849 
35520000    271.97108    333.79756     255.4268   -3.6172746    3.6855228    78.370756    40.021582 
35524000    274.42834    337.29587    256.69673   -4.3625037    5.0326749    80.599138    40.029988 
35528000    273.84959    335.85257    267.57832   -3.2053704    4.0546695    68.274258    40.029268 
35532000    273.09288    315.04472    280.74051   -2.4834846    4.0499813    34.304201    40.045489 
35536000    274.48795     334.3986    280.78579   -2.5078643    3.5509409    53.612803    40.058118 
35540000    270.65021    304.14503    270.53033   -1.9398423    3.9441752    33.614696    40.068096 
35544000    279.13056    328.67783    297.61873   -2.4738987    3.7069059    31.059107     40.06548 
35548000    263.98985    303.23204    295.29071   -1.9636669    2.4976967    7.9413278    40.060548 
35552000    268.23308    312.41374    273.42519   -2.4754497    3.5887763    38.988551    40.053475 
35556000    276.42701    348.96547    268.73872   -5.4324998     4.473566    80.226747    40.043073 
35560000    273.69332    325.27134    281.19592   -4.1188799    4.7566656    44.075428    40.044593 
35564000    277.17298    333.80957    285.44041   -3.6109399    4.2852945    48.369164    40.042076 
35568000     273.4409    329.90972    268.96724   -4.0972357    5.0017505    60.942481    40.047193 
35572000     275.5046    326.51552    286.94769   -5.1829895    3.5121893    39.567824    40.044969 
35576000    268.60606    311.77685    274.07474    -4.256845    4.9671163    37.702104    40.044757 
35580000    271.23003    290.38295    287.66528    -2.958839    4.9684013     2.717668    40.032581 
35584000    263.70491      293.243    279.98782   -3.0778504    5.4298316    13.255174    40.026943 
35588000    278.60297    316.31566    304.15231   -3.2573627    3.6082274    12.163357    40.028511 
35592000    269.36146    328.53062    287.65094    -3.523508    4.6597541    40.879684    40.016732 
35596000    283.65789    342.74619    311.93557   -4.2646086    2.5796995    30.810618    40.029576 
35600000    272.12654    301.40959    289.78862     -2.52104    3.7436305    11.620976    40.025833 
35604000    267.35432    314.46153    274.78314   -3.9250284    5.5815246    39.678397    40.030802 
35608000    279.26782    333.01377    275.74458   -4.0780896    5.9187028    57.269188    40.031517 
35612000    265.15874    313.57208    265.18764   -1.9300931    5.5301797    48.384441    40.043128 
35616000    271.24059    309.58864    286.45702   -2.4982259    5.1084074     23.13162    40.044504 
35620000    268.52693    305.60108    281.15647   -2.0051504    5.5141943    24.444612    40.038171 
35624000    268.99964    315.57372    283.84379    -4.417312    4.8951004    31.729934    40.050543 
35628000    274.62387    320.96068    300.77395   -3.5835282    4.1161753    20.186733    40.044006 
35632000     274.5778    334.23868    287.94956   -4.2634305    4.2778762    46.289124    40.050142 
35636000    271.49992    294.14177    293.48006   -2.7620048    4.7215016   0.66170918    40.052101 
35640000    270.51983    345.30226    266.29256   -5.5082411    5.5222331      79.0097    40.043437 
35644000    270.01496    320.17043    274.12371   -3.7039906    5.4486231    46.046722    40.056014 
35648000    275.00418    324.16145    290.84713   -4.3322292    3.2230323     33.31432    40.048061 
35652000    277.22733    348.65947    287.70425   -5.1508639    3.9987224    60.955225    40.053813 
35656000    270.38333    320.93125    260.26511   -4.5295713     5.291018    60.666137    40.067777 
35660000    268.94556    295.25691    272.62709   -2.0561155    4.2775564    22.629821    40.078507 
35664000    268.12566    320.57025    271.61836   -4.8222308    5.2844667    48.951886    40.061573 
35668000    269.63396    299.48362    287.81927   -3.6243392     4.113908    11.664352     40.05817 
35672000    272.31414    341.56556    271.09533   -5.4152203    6.1797565    70.470236     40.05507 
35676000    271.84643    316.33583    284.62211   -4.1874271    4.7634145    31.713713    40.053468 
35680000    270.92007    317.90562    277.78985   -4.6622651    5.3060003    40.115776    40.060497 
35684000    264.30466    302.93253    286.74403   -3.0816571    3.5085307    16.188505    40.046613 
35688000    277.75799    321.18447    276.79199   -4.0033945    4.8530481    44.392479    40.044059 
35692000    278.96403    332.16348    288.32222   -5.0203106    5.0383938    43.841266    40.048401 
35696000    275.32335    312.08841    275.74863   -2.9354653    5.2422676    36.339781    40.049901 
35700000    280.10189     319.7276    274.58401   -4.7962011     4.853191    45.143596    40.048203 
35704000    269.62249    315.57398    288.94187    -3.450281     4.277483    26.632118     40.04749 
35708000    274.07951    317.95477    298.66622   -4.0076368    3.9003196    19.288548    40.034908 
35712000    267.78631    301.78246    276.86686   -2.8604058    6.1424513    24.915601    40.025253 
35716000    276.61299    337.23262     274.9058    -5.014329    6.0900888    62.326827    40.028864 
35720000    273.51617    314.60059     279.4934   -4.1650354    5.5551969    35.107191      40.0246 
35724000    277.60287    318.34228    284.65109      -3.5802    4.1995095    33.691183    40.013046 
35728000    277.31539    334.98806    277.67316   -4.9306687    4.5553566    57.314902    40.026429 
35732000    273.28954    312.77303    284.37489    -3.980539    4.8315457    28.398139    40.035902 
35736000    275.44859    313.19961    291.15477   -3.9576099    5.4488438    22.044846    40.044528 
35740000    272.50772    315.60925    285.68335    -4.348059    5.4464365    29.925899    40.034984 
35744000    281.51555    317.52692    296.02579   -5.2682868    4.0629044     21.50113    40.048031 
35748000    268.79627    329.27602    257.92677   -4.7678812    5.4675515    71.349247    40.041807 
35752000    271.92335    303.44443    271.90669   -4.1901507    4.0682711    31.537743    40.037495 
35756000    270.87602     317.0101    281.09358   -4.0550764    3.9645746    35.916524    40.042101 
35760000    271.73559    315.97732     276.4832   -4.6950912        4.729    39.494116    40.023154 
35764000    278.39957    320.55455     278.7139   -4.2899464    4.0258861    41.840653    40.038475 
35768000     268.5518    307.99325    275.36671   -4.4534449    4.1697198    32.626534    40.049584 
35772000    267.58997    315.27947    260.41248     -4.26839     4.391311    54.866993    40.059287 
35776000    279.37996     311.4444    308.38019   -4.4748509    2.7364361     3.064205    40.059661 
35780000    273.06566    311.27821    267.38641   -5.3744928      4.17874    43.891801    40.054222 
35784000    274.18342    323.58434    270.31907   -4.2657719    4.5747255    53.265272    40.068023 
35788000    276.43834    327.63008    274.96427   -5.7330659    4.4555115    52.665815    40.069271 
35792000    270.91939    319.78747      282.781   -5.2575333    4.9921708    37.006474    40.073465 
35796000    282.16458     341.3099    287.42869   -4.8935319    4.7531315    53.881213    40.077334 
35800000    271.70236    337.19103    259.06046   -5.6954464    5.1113073    78.130576    40.093111 
35804000    283.10337    336.53524    300.85675   -5.8826706    3.5968691    35.678491    40.092096 
35808000    271.10822    306.18448    290.75685   -4.6745718    4.3118127    15.427635    40.089182 
35812000    271.23139    311.82748    273.24554   -4.4568524    5.7133283     38.58194    40.078292 
35816000    278.06551     336.1647    286.73079   -5.3292393    4.3029317    49.433908    40.077199 
35820000    260.77597    298.22778     265.6198   -3.2822063    5.6335358    32.607978    40.079419 
35824000    262.96125     316.3321    254.87081   -4.8033234    5.4302668    61.461298    40.083023 
35828000    276.17605     325.6563    274.13694   -4.9042296    4.6354343    51.519365    40.073571 
35832000    283.68564    340.14166    286.94648   -4.8065833    4.3344217     53.19518     40.07112 
35836000     280.7391    321.24075     287.5148   -3.7315853    3.7513932    33.725949    40.075077 
35840000    269.22658    315.80642    295.61804   -4.2278928    3.6751621    20.188374     40.07458 
35844000     280.3104    328.93838    299.78447   -3.8140192     3.240978    29.153913    40.090644 
35848000    273.78723    325.36016    256.62757   -4.9843994    4.2304198    68.732591    40.089623 
35852000    280.47516    313.39632    286.83908   -4.6410904    4.5609344    26.557242    40.106888 
35856000    271.82884    323.42126    276.47005   -4.4286608     4.297575    46.951218     40.11069 
35860000    288.11973    355.24312    297.35425   -6.0783488    3.4608559    57.888868    40.115612 
35864000    273.50576    332.20722     272.4748   -6.1624556    4.7109349    59.732415    40.118298 
35868000    281.88872    333.86775    281.00744   -6.1788016     5.376431    52.860312    40.127295 
35872000    272.25053     319.8551    279.95686   -4.8582306    5.2355359    39.898241    40.129919 
35876000    277.03935    303.54252    297.71606   -3.5261787    5.0206613    5.8264523    40.137337 
35880000    271.33716    314.89573    273.98305   -4.2362873    5.4419344    40.912678    40.134415 
35884000    265.47473    303.59676    266.53734   -4.4599419    4.9537953    37.059417    40.124645 
35888000    276.88039    334.90103    281.42971   -4.7198246    4.2993787    53.471324    40.121475 
35892000    266.50387    328.58429    252.03319   -6.0317004    6.5837939    76.551106    40.126599 
35896000    281.07462      342.853     279.3003   -6.1311047    4.9984371      63.5527    40.124872 
35900000    276.76588    327.66168    300.08453   -5.2172783      4.28372    27.577147    40.126097 
35904000    277.23671    308.10895    280.49656    -4.409621    4.8238208    27.612397    40.124753 
35908000    272.29873      320.097    277.73174   -4.5251065    4.7060145    42.365254    40.127128 
35912000     277.3337    321.78381    286.39719   -4.9355093    4.4937872    35.386619    40.130091 
35916000    270.31831    305.13212    264.22336   -5.2432008    6.2192521    40.908755    40.116516 
35920000    290.60145    339.36392    297.09298   -6.9356983    5.1956066    42.270941    40.117083 
35924000    276.35028    320.08478    279.80614   -4.9179874    5.4071303    40.278636    40.113635 
35928000    280.57231    325.03063    273.90232   -6.4189833    5.3887347    51.128314    40.128129 
35932000    285.54997    338.02992    290.26812    -7.265114    3.6586762    47.761798    40.129564 
35936000    270.78309    320.07788    275.60305   -6.1916838    5.4122856    44.474833    40.126932 
35940000     272.1484    321.10342    261.32757   -6.4026041    6.7269745    59.775854    40.133177 
35944000    271.27108    292.72234    288.99193   -5.6918548    5.4984234    3.7304064    40.130177 
35948000    275.01047    318.90489    282.86044    -5.257506    5.4418031    36.044458    40.128463 
35952000    267.99602    309.66042    271.05243   -6.3722616    5.2557599     38.60799    40.115165 
35956000    285.85284    338.05554      296.428   -5.9593758    4.1839463    41.627544    40.112781 
35960000     277.3265    319.91843    269.72452   -5.6191886    5.8315666    50.193909    40.116417 
35964000    261.34514    309.51023      251.509   -5.5159915    7.7445743    58.001234    40.118523 
35968000    281.38711    343.98118    285.39075   -7.0946179     6.203531    58.590429    40.113969 
35972000    280.61941    351.97793    292.33631   -6.8034648    5.0944249    59.641623    40.127449 
35976000    261.94298    308.27661    255.16076   -4.9991699     7.451785    53.115848     40.13245 
35980000    268.22719     334.2643     271.4404   -7.0941698    6.4187501    62.823899    40.133595 
35984000    278.23378    330.42835    269.00155   -6.7253667    7.2640245    61.426801    40.133012 
35988000    273.70179    339.92343    262.82969   -8.0462966      6.97534    77.093736     40.13584 
35992000    275.82205    323.54805    281.69686   -6.3711564    5.9812779    41.851182     40.13662 
35996000    284.57986    361.03449    277.60606   -8.1595974    6.6467352    83.428429    40.142566 
36000000    281.83019    355.63789    294.14376   -8.7936882     5.493688    61.494125    40.136815 
36004000    278.20164    327.11715    292.08805   -5.7616121    4.6465723    35.029098    40.131268 
36008000    268.30478    321.40114    263.35976    -5.938868    6.5914707    58.041376    40.126707 
36012000    269.68723     338.6997    256.07165    -6.300468    6.0457466    82.628048    40.132245 
36016000    264.59156    318.85614    267.69383   -5.4169434    5.6810322    51.162309    40.139695 
36020000    264.89731    316.02809    269.89954   -5.6276584    6.6287764    46.128554    40.148282 
36024000    270.95757    311.27568     275.7345   -5.1348128    7.6501711    35.541181    40.141625 
36028000    269.87567    309.53199    304.08063   -4.3000995    5.5521296    5.4513605    40.139562 
36032000    279.14454    334.82171    284.86451   -5.4767825    6.7112086    49.957196    40.141204 
36036000     273.1174    322.31609    286.74052   -4.5201413    5.8112497    35.575567    40.143195 
36040000    261.92585    323.23376    264.21965   -5.2829244     7.231363    59.014116    40.153358 
36044000    276.54781    336.09491    279.66658   -5.8183247    6.0267344    56.428333    40.174935 
36048000    282.19541     323.6442    309.64112   -5.1860888    4.5809453    14.003082    40.185375 
36052000     273.2795    329.41626     274.1619   -5.4342323    6.5474858    55.254367    40.183707 
36056000    276.93607    321.22621    279.24468   -5.6347976    5.5303195    41.981534    40.185986 
36060000    264.62652    301.37417    287.13646   -4.0607539    6.0726721    14.237702    40.172581 
36064000    266.24661    310.38968    281.21396   -4.4694912    6.7521633     29.17572    40.175032 
36068000    268.66552    327.35014     277.5376   -5.9511371    6.1400347    49.812542    40.186507 
36072000     261.9174    304.10556     283.6323   -3.4195042    6.5604224    20.473254    40.193196 
36076000    269.08508    314.06059    276.72534   -4.9809264    7.2677519    37.335254    40.191093 
36080000    270.37672    319.34234    293.86105   -5.0322803     5.544703    25.481295    40.191324 
36084000      281.455    325.31763    286.57268   -6.1858813    5.6235344    38.744958    40.187973 
36088000    277.29823    333.44623    284.91751   -7.2764617    5.8377262    48.528722    40.181654 
36092000      272.808    300.42513    281.13068   -5.0147878    6.5434566    19.294445    40.183771 
36096000    278.57567    328.72792    294.67989   -5.8763146    5.9568236    34.048027    40.184111 
36100000    271.98258    314.37963    305.31084   -4.3119517    5.2586987    9.0687893    40.189769 
36104000    275.71533    316.79483    284.47135    -4.672394    6.3100787    32.323481    40.190665 
36108000    272.01221     312.7671    286.13316   -4.4982937    6.8300586    26.633935    40.188671 
36112000    272.76177     312.1223    286.28422    -4.894199    6.6992149    25.838078    40.188364 
36116000    272.91237    322.83606     270.3315    -4.690206    6.5189383    52.504564    40.198429 
36120000    263.06495    306.99277    270.22107   -4.1684594    6.8783141    36.771703    40.194299 
36124000    272.26493    300.30064     300.9566   -3.2803947     5.563441  -0.65596031    40.193201 
36128000    261.72485    293.58614    273.75873   -1.8341713    6.0658531    19.827411    40.185028 
36132000    268.56552    315.19273    279.14019   -4.6757957    5.7080636    36.052543    40.180123 
36136000     263.1666    327.18352    255.21184   -6.1738834    6.8527113    71.971672    40.182636 
36140000    267.63816    302.76258    289.36752   -3.7933418    6.0822628    13.395064    40.177208 
36144000    270.92778    323.58909    276.57882   -4.7838268    7.3392446    47.010271    40.193123 
36148000    270.91913    300.24187    291.16766   -3.0759918    5.4368449    9.0742065      40.1823 
36152000    276.78471    320.94773    289.79095   -6.0845715    5.7394772    31.156773    40.195258 
36156000    269.39377    314.48885    270.00298   -4.7981501     6.704239    44.485873    40.186618 
36160000    260.84218    312.36957    265.42653   -4.5181834    7.1871224    46.943041    40.181108 
36164000    271.24332    315.46221    292.09432   -4.5785185    7.0739042    23.367888    40.183005 
36168000    275.47779    301.88497    310.20941   -4.9007307    6.3404959   -8.3244456    40.174081 
36172000    269.79445    320.94094    285.25878   -3.8227337    5.9756053    35.682164    40.173672 
36176000     269.9808     325.5228    275.72497   -4.0910739    6.6576539    49.797832    40.171681 
36180000     263.0064    320.44159    273.13334   -5.5136725    6.1618247    47.308252    40.161803 
36184000    263.25795    304.00906    273.48085   -3.2674617    6.5022179    30.528202    40.165686 
36188000    271.43087    320.74715    280.62002     -3.65622     6.001099    40.127135    40.156813 
36192000    271.44214    310.16401    299.26749   -3.7445708    5.1518821    10.896518    40.161775 
36196000    263.19907     306.9868    267.73683   -2.2436016    6.8996608    39.249975    40.162196 
36200000    276.45817     318.6818    287.37243   -3.7102472    4.6852618    31.309366    40.159707 
36204000    273.11006    327.62662    291.95191   -5.1031144    4.9161324    35.674705    40.149789 
36208000    263.96221    305.40484    258.30214   -3.4293314    7.6003002    47.102694    40.137433 
36212000    273.85603    333.36698    286.96363   -4.3256059    7.2291005    46.403355    40.150281 
36216000    265.72302     307.0128    283.32096   -3.0696538     7.409705    23.691839    40.141087 
36220000    267.59737    324.44684    273.87304   -4.1151132     7.089761    50.573793    40.135102 
36224000    276.45894     343.4421    290.37675   -5.7190263    6.3045058    53.065349    40.139753 
36228000    269.63214    306.43968    270.61128   -4.1686179    6.6316735    35.828401     40.14246 
36232000    271.04914    325.93936    273.49442   -4.8816566    4.9850855    52.444942    40.146658 
36236000    276.50479    342.63193    278.66963   -5.1665233    5.8410989    63.962306    40.144567 
36240000    273.56846    324.81577    264.38824    -4.494744    6.0242318    60.427536    40.156227 
36244000    277.99088    345.98757    273.85969   -5.0971557    6.3000208    72.127881    40.161855 
36248000    270.36685    317.05232    278.01212   -3.1010174    6.9198623    39.040194    40.161893 
36252000    271.54664    335.82687    285.71639   -4.1563347    6.1099435    50.110479    40.162469 
36256000     266.2742    308.31842    274.55509    -1.941891    6.3531883    33.763328    40.167067 
36260000    277.15924    335.13469    284.51133   -4.1320396    5.0357082    50.623366    40.162673 
36264000    268.57723    323.80613    265.22457    -2.916066    7.2228641    58.581563    40.153532 
36268000    267.56451    329.14133    281.45412   -4.6281822    6.5077894    47.687204    40.159071 
36272000    265.34339    319.15233    273.83241   -3.0123722     7.219822    45.319919      40.1625 
36276000    272.12661    314.45341    296.99351   -3.8992957    5.7580271      17.4599     40.16467 
36280000    274.71706    325.17172    290.52171   -4.2902112    5.9778018    34.650018    40.169775 
36284000    264.08482    321.43811    286.07854   -4.7844582    7.0673048    35.359568    40.170572 
36288000    270.02075    321.31632     285.8368   -3.8007595    6.8477766    35.479522    40.165642 
36292000    256.70131    298.99646     270.6494   -3.6025866    6.9430655    28.347058    40.165962 
36296000     276.9421     327.8961    294.51724    -4.296548    7.2218994    33.378866    40.172495 
36300000    258.64928    311.54855    266.94914   -2.7116458    7.6362458    44.599403    40.167481 
36304000    259.49138    319.94071     267.7159     -4.96104    7.2998694    52.224815    40.172093 
36308000     271.5514     333.2419    290.64386   -5.7416377    7.1400605    42.598048    40.175821 
36312000     277.1975    332.57775    289.61479   -5.0841872    5.8201426    42.962957    40.182104 
36316000    264.06084    311.41539    285.28983    -4.183938    5.8447403    26.125563    40.182716 
36320000    263.40946    297.64009    268.09521   -3.5280401    6.2682533    29.544877    40.177458 
36324000    264.93478    323.39221    279.62935   -4.6017666    6.1604212    43.762863     40.17647 
36328000    272.73449    319.77189     277.5027   -4.4284766    6.2369302    42.269197    40.168112 
36332000    266.74635    309.69072    269.39332   -4.0942797    6.9106342    40.297395    40.158564 
36336000    270.17123    338.27501      262.361    -6.079774     7.405368    75.914015    40.150042 
36340000    268.41342    306.58402    278.90897   -5.2978082    5.9163203    27.675051    40.151623 
36344000    266.75647    309.37418    273.57431   -4.4326134    6.4624755    35.799869    40.144637 
36348000    265.57325    312.45077    274.71166   -4.3883804    6.2494771    37.739115    40.152518 
36352000    264.58248      316.142    271.01667   -5.2678395    7.6873152    45.125333    40.148407 
36356000    267.56724    308.32671    272.89877   -4.9425702    7.9772722     35.42794    40.156084 
36360000    266.69942    315.52518    282.63281   -5.5126251    7.8536819    32.892365    40.152751 
36364000    273.23035    338.21883    267.38652   -6.1332157    7.2690894    70.832306    40.153763 
36368000    268.85957    311.41741    279.73206   -3.8776115    6.2199543    31.685349    40.163623 
36372000    270.49696    318.61887    271.35259   -4.2621019    6.7711602    47.266273    40.172716 
36376000    265.66424    319.00143    266.19164   -4.7922682    7.1779538    52.809792    40.178139 
36380000     274.4112    307.51011    293.82308   -3.5395494    6.0996922    13.687027    40.186982 
36384000    274.30167    326.35188    287.65286    -4.240855    6.2463891    38.699013    40.186256 
36388000    278.11135    348.48544    285.74154   -4.7817897    6.0567465    62.743894    40.190612 
36392000    267.71506    304.44646    297.08567   -3.1146093    6.1610616    7.3607873    40.188997 
36396000    257.13957    312.94802    251.98376    -3.390727    9.0857679    60.964262    40.188224 
36400000    270.89625    327.82764    306.36429   -3.0929105    6.2979541    21.463348    40.187198 
36404000    269.81759    319.37294    303.11593   -2.7177221    6.1892932    16.257015    40.190357 
36408000     264.8567    312.50427    294.40125   -2.2885539    5.7063238    18.103015    40.188303 
36412000    272.54764    333.65161    276.38928   -3.1666378    7.0684354    57.262323    40.190684 
36416000    261.80826    309.28096    273.16776   -2.0710868    8.5088777    36.113206    40.198734 
36420000    262.34735    312.54701    269.82625    -2.492061    8.3330238    42.720762    40.201332 
36424000     269.5936    321.13956    272.97266   -3.5524394    7.3890907    48.166906    40.205935 
36428000    259.54031    318.36735    250.52014   -2.9080765    7.1536859    67.847209    40.210768 
36432000    266.78304    339.61792    292.50847   -4.1373729    7.0360018    47.109448     40.20938 
36436000    271.95541    332.52954    286.87823   -3.7757787    5.8977133    45.651308    40.215939 
36440000    265.74128    314.98059    292.52377   -4.1940669    7.2516837     22.45682    40.208814 
36444000    264.69057    310.00575    257.85964    -4.244069    8.0244139    52.146111     40.20341 
36448000    268.25792    318.07558    277.36574   -4.9274569    7.7445554    40.709842    40.198981 
36452000    279.29892     329.9914    290.30337   -5.0296383    6.5508726    39.688032    40.198126 
36456000    268.77341    332.22907    275.21285   -6.2037211     6.779479    57.016215    40.207271 
36460000    268.25703    317.83071    271.67812   -4.4608629    6.6104849    46.152585    40.208606 
36464000    263.63235    332.25859    259.04515   -4.9948072    7.5134234     73.21343    40.212805 
36468000     277.3964    332.83231    301.25405    -5.387799    5.4795697    31.578266     40.21472 
36472000    274.96704    320.78151     288.1729   -4.7022838    5.3891983    32.608608    40.207783 
36476000    262.20655    313.63188    272.10429   -3.2340874    5.9607227    41.527593    40.211328 
36480000    264.51544    287.78669    279.33005   -2.8118682    6.3741131    8.4566365    40.216821 
36484000    274.70466    336.29189    267.47627    -5.375231    7.7397595    68.815629    40.214738 
36488000    273.79343    329.43428    286.95018   -4.9198533     6.073568    42.484102    40.216759 
36492000    271.07254    318.09817    278.28235   -4.9487875    5.6594231    39.815818    40.215294 
36496000    267.62848    294.77562    274.30965   -4.0408761    5.9527265    20.465976    40.211716 
36500000    264.59998    301.62788     289.3459   -5.0672355    7.4169724    12.281984    40.207922 
36504000    266.28728     304.0391    272.96002   -3.9427094    7.4482025    31.079081    40.221391 
36508000    266.02719    297.80815    276.62818   -4.0341163    6.9339759    21.179972    40.217483 
36512000    270.00046    338.10036     271.3493   -4.4606863     7.332632    66.751058    40.218617 
36516000    274.06222    328.48789    284.32715   -4.6692085    6.4949956    44.160736    40.210428 
36520000    263.89558    328.40411     263.4311   -4.7043346    7.3475775     64.97301    40.219216 
36524000    276.71196    325.44353    278.08057   -5.5088323    7.4066308    47.362956    40.227335 
36528000      270.083    320.90325    294.95374   -4.9726204    5.6831985    25.949511    40.223176 
36532000    275.58795     317.7869    314.96703   -5.0096466    5.6317119    2.8198708    40.218458 
36536000    267.86881    312.80745    249.78595   -5.1273046    8.3197054    63.021495    40.218941 
36540000    269.08938    316.84339    278.98295   -4.1435594    6.9375926    37.860448    40.219435 
36544000    273.07901    349.74217    269.99836   -6.0407104    7.4649428    79.743814    40.224421 
36548000    256.47291    294.89811    282.33922   -4.5619557    6.6110994    12.558897    40.214436 
36552000    269.64719    310.91995    284.18952   -5.9190241    5.8182282    26.730432     40.20822 
36556000    266.08067    317.30507    266.76463   -4.7419398    7.6474136    50.540441    40.205194 
36560000    275.82756    323.81058    285.68668   -5.6089928    6.3336493    38.123898    40.209596 
36564000    272.25941    325.34511    284.03491   -6.0651582    6.7790006    41.310191    40.202882 
36568000    265.51079    299.26745    282.26881   -5.7380139    6.4929247    16.998637    40.190621 
36572000    268.67215    301.02447    307.13084   -4.6350469    5.2301621   -6.1063714    40.184017 
36576000    273.13719      324.394    289.04395   -6.3658462    6.9213598    35.350051    40.177702 
36580000    270.93366     329.0713    292.17502   -5.8788884    6.1937475    36.896279    40.186406 
36584000    272.89462    337.50306     274.3707    -7.632477     8.337566    63.132356    40.182468 
36588000    274.35012    327.47318    295.45273    -6.796988    7.5227983    32.020446    40.180621 
36592000    272.08641    330.47445    265.77835   -7.0842421    8.7959303    64.696109    40.177683 
36596000    277.78306    319.37714    315.99323   -7.0761386    5.5165024    3.3839125    40.170091 
36600000    268.46559    306.71104    271.57786    -6.349036    7.1643196    35.133181    40.171785 
36604000    270.51183    315.04971    306.34577   -6.3962977     6.556929    8.7039406    40.166332 
36608000    276.51244    331.38785    280.28025   -7.0541935    7.7382407    51.107595    40.165913 
36612000    257.06209    293.41019    263.09173   -5.4559235     9.363531    30.318459    40.160482 
36616000    266.69668    310.32956    277.18281   -5.5994053    8.1225776    33.146754     40.15913 
36620000    270.41898    321.41578    271.23038   -6.6205165    7.9705828    50.185393    40.150269 
[...]
49704000    286.34935    354.07323    285.77716   -34.932735     31.91734    68.296066    40.202121 
49708000    266.69109    296.43628    280.93008   -32.261563    31.883954    15.506199    40.203185 
49712000    276.55116    316.89064     274.9227   -33.703887    32.623557    41.967943    40.202986 
49716000    281.51086    319.29216    289.19451   -32.734318    32.062308    30.097648    40.202842 
49720000    272.22304    325.04458    288.49619   -33.201723    32.739408    36.548389    40.203508 
49724000    276.97088    334.04652    264.75985   -33.626741    33.187554     69.28667    40.203235 
49728000    279.10143    321.89884    287.16623   -32.917067    32.029474    34.732613    40.203171 
49732000    274.74339    328.62495    277.13324   -34.094585    31.503745    51.491708    40.202913 
49736000     265.6472    309.49663    261.13128   -32.165326     33.31477    48.365342    40.202901 
49740000    273.77148    303.56121    279.87861   -31.858791    32.098824    23.682601    40.202779 
49744000    268.17299    300.78253    273.62504   -32.709492    32.718758    27.157489    40.202896 
49748000    280.82076    323.19016    293.03364   -32.771561    31.786481     30.15652     40.20134 
49752000    274.10547    334.35196    272.95415   -34.657285     32.08015    61.397816    40.201959 
49756000    276.54625    325.22845    270.17243   -32.343074    32.965842    55.056022    40.202577 
49760000    275.65818    316.54739    297.21715    -33.40697    32.407524    19.330241    40.201875 
49764000       274.87    314.91932    279.03744   -32.672047    31.771633    35.881881    40.201634 
49768000    270.61634    317.06444    286.55095   -32.424724    32.992549    30.513493    40.201853 
49772000    274.59843    310.84524    280.00829    -33.08304    33.516176     30.83695    40.201696 
49776000    272.91011    317.31328    274.00739   -31.935571     33.50477    43.305885    40.202055 
49780000    278.82155    330.14109    285.10802   -33.059654    32.212076    45.033074    40.201271 
49784000    276.81622     350.8853     292.3949   -33.311519      33.1614    58.490393    40.201985 
49788000    283.45179    341.85279      304.083   -33.757661      32.0508    37.769785    40.201215 
49792000     286.6763    321.62687    293.77683   -32.396877    31.327101    27.850041    40.202118 
49796000    276.24955    310.45385    278.46196   -32.201725    32.582416    31.991891    40.202291 
49800000    275.43992    320.76965    279.25683   -32.206245    32.971451    41.512821    40.201794 
49804000    274.06347    313.36758    272.45542   -32.707422    33.550967    40.912158    40.200988 
49808000    274.08891    336.72299    289.73076   -33.127215    32.351782    46.992228    40.201974 
49812000    273.79724    326.12446    275.68157   -33.029344    33.277936    50.442892    40.201975 
49816000     264.9372    294.42355    270.34856   -30.144475    33.508633    24.074983     40.20217 
49820000    270.39499    305.31703    283.47648   -32.140575    32.198673    21.840543    40.201179 
49824000    280.41221    325.12074    282.93796   -33.105949    32.368761    42.182777    40.201782 
49828000    281.94964    331.50604    294.56721   -32.906483    32.130655    36.938829    40.201751 
49832000     264.7687    294.24996    266.70039   -31.526849    34.347131    27.549571    40.202605 
49836000    280.30924     317.5935    288.40607   -33.556351    33.433836     29.18743    40.203137 
49840000    276.28181    324.31368    293.42557   -33.885219    32.448251    30.888111    40.202502 
49844000    276.96991    323.13874    301.93882   -32.575404    31.199273    21.199919    40.201755 
49848000    277.73374    320.08125    287.88201   -33.367289    31.240695    32.199246    40.202337 
49852000    277.47632     327.3291    273.11334   -33.938139    33.508362     54.21576    40.202069 
49856000    284.69608    340.54744    283.26325    -33.17926    32.558154    57.284185    40.202298 
49860000    275.06178    325.09322    274.16308   -33.611392    32.738652    50.930136    40.200512 
49864000    280.19907    323.01011    284.36416   -34.075308    32.121858    38.645958    40.201328 
49868000    275.08328    324.93896    279.63883   -34.299379    32.803981    45.300128    40.200033 
49872000    273.37153    297.89769    304.73257   -32.250698    31.516482   -6.8348775    40.199223 
49876000    282.00322    330.55958    279.32071   -33.975452    32.742784    51.238872    40.199238 
49880000     282.6502    319.68398    297.25267   -32.866868    32.151481     22.43131    40.199256 
49884000    274.80123    312.49695    291.52004   -33.005202    32.928587    20.976906    40.199295 
49888000    268.26866     316.6109    275.86264   -33.688442    33.098425    40.748263    40.200613 
49892000    267.94975    325.15538    269.75464   -32.522381     34.84625    55.400739    40.201137 
49896000    272.68214    308.96202    272.70683   -33.434247    33.661925    36.255189    40.200597 
49900000    270.98392    335.34421    273.05751   -33.531037    33.448243    62.286703    40.200509 
49904000    279.62551    323.55494    295.09872   -32.914078    31.830834    28.456226    40.200757 
49908000    272.57876    315.88611    283.77954   -32.825745    32.913179     32.10657    40.199912 
49912000    273.60496    326.79025    281.60835   -34.184739    34.066188    45.181899    40.200481 
49916000    266.43339    319.49761    292.11239   -33.861203    33.329405    27.385213    40.201909 
49920000    269.81895    316.35054     307.4676    -33.89656    33.264554    8.8829441    40.201064 
49924000    266.04004    315.81982    276.06458   -33.567641    34.211412    39.755234    40.200971 
49928000    279.89853    342.58735    283.59413   -34.782993     34.01593    58.993222    40.200426 
49932000    276.37116    346.06132    274.17935   -34.314266    34.432698    71.881972    40.199862 
49936000    275.59428    324.12486    303.50285   -32.908504    33.015119       20.622    40.199834 
49940000    270.34261    327.00729    280.88168   -33.660275    34.188685     46.12561    40.201575 
49944000    270.57048    316.06285    287.57949   -33.394088    33.801999    28.483369    40.200239 
49948000    268.66439    326.45366    291.48165   -32.997909    33.720479    34.972008    40.199719 
49952000    269.56091    327.64617    261.64943   -31.265058    35.413191    65.996741     40.20116 
49956000    269.57861    312.97785      283.946   -31.557609    34.703976    29.031847    40.200589 
49960000     263.6164     303.4876    276.24833   -31.913108    36.018875    27.239269    40.200502 
49964000    271.94388    334.19177    273.32053   -32.341466    35.546553    60.871239     40.20132 
49968000    256.33528    282.38259    267.04833   -30.334558    36.423714    15.334262    40.201208 
49972000      260.791    300.66775    273.15903   -30.669884    35.200611    27.508714     40.19985 
49976000    274.17722    315.76251    307.27369   -31.364911    33.732561    8.4888201    40.200819 
49980000    270.36314    312.64106    289.61224    -31.35787    33.785082    23.028825     40.20064 
49984000    270.10482    317.63324    274.93648   -31.822463    36.218697    42.696768    40.200454 
49988000    269.27044     316.1798    279.93101   -30.735748    35.327203    36.248791    40.200493 
49992000    265.49441    323.53504    274.65428   -31.961653    34.022682    48.880758    40.199327 
49996000    260.78529     287.5096    277.60004   -29.403711      33.4047    9.9095606    40.200028 
50000000    282.20087    326.14615    310.45294    -31.24416    32.717532    15.693204    40.199859 
50004000    268.89277    325.06123    281.62037   -31.340794    32.508481    43.440864    40.199904 
50008000    266.87039    289.07465    284.91167   -30.356631    32.439013    4.1629791    40.200077 
50012000    275.28714    321.71339    280.98281   -31.929078    33.050475    40.730588    40.200739 
50016000     276.9589     334.1748    283.03947   -33.368811    32.794572     51.13533    40.201309 
50020000    276.08258    306.56475    291.29215   -29.950046     31.49349    15.272606    40.201908 
50024000    271.94811    327.04852    291.90008   -31.424581    33.231049    35.148444    40.201496 
50028000    271.13465    324.03184    286.13211   -32.516174    33.028302    37.899736    40.201526 
50032000    266.26646     319.5738    272.90078   -31.409841     34.29266    46.673019    40.199642 
50036000    268.74924    308.38045    280.07788   -31.456913    33.577967    28.302568     40.19936 
50040000    268.04481    331.46637    275.42825   -32.210207    34.405255     56.03812    40.198743 
50044000     265.4916    300.84956    276.56727   -31.532796    34.252627    24.282287    40.198561 
50048000    270.75472    333.32795     271.4336   -33.441495    34.275386    61.894355    40.196521 
50052000    280.41085    337.36397    300.26954   -33.298189    32.580192    37.094426    40.196561 
50056000     266.2275    306.39057    288.76923   -32.154172    33.457738    17.621334    40.195969 
50060000    257.92293    279.52948    274.41683   -30.931986    34.365557    5.1126452    40.195928 
50064000    269.71845    332.60351    283.52907   -33.922235    34.145647    49.074447    40.196777 
50068000     269.6151     315.8284     273.0756   -33.562183    34.070962    42.752796    40.196562 
50072000    265.75287    337.38103    259.15108   -33.609245    34.463173    78.229953    40.196537 
50076000    281.08928    334.53371    299.68709   -32.876293    32.984291    34.846616    40.195679 
50080000    272.92107     317.6246    279.82868    -31.99741     33.50462    37.795925    40.196735 
50084000    274.97372    326.15524    278.31835    -33.12921    33.829135    47.836883    40.196639 
50088000    267.25969      313.095    266.08199   -31.627788    34.225814    47.013017    40.195656 
50092000    273.34607    325.85625    270.86459   -33.070573     36.03304    54.991662    40.195751 
50096000    270.65026    314.22457    287.79927   -32.410831    33.594165    26.425297    40.195299 
50100000    276.74277    334.89375    280.94582   -34.022746    34.173893    53.947933    40.195799 
50104000     261.4322    305.67678    258.78084    -33.16578    34.717263    46.895941    40.195785 
50108000    271.19993    329.88711    280.71794   -33.075386    34.303015    49.169172    40.196642 
50112000     286.7112    344.39341    296.42034   -33.546024    32.952197     47.97307    40.196447 
50116000    275.63232     323.4743    290.57091   -32.638297    33.702389    32.903386    40.196479 
50120000    273.61477    334.19356    297.75298   -32.733993    32.551869    36.440585    40.195986 
50124000     274.3376    323.37775    278.40114   -32.415152    34.423491    44.976608    40.194818 
50128000    274.88467    345.08231     278.5619   -34.029427    33.849121    66.520411    40.194089 
50132000    269.67652    306.68242    286.95156   -31.484114    33.756008    19.730859    40.193361 
50136000     270.1266    320.34097    274.05233   -32.733401    33.493993    46.288634    40.192823 
50140000    268.45393    317.15115     259.7245    -32.42182    35.011549    57.426644    40.192939 
50144000    276.24749    315.83931    284.80389   -32.956097    33.341056    31.035423    40.194069 
50148000    272.95288    307.70697    285.04273   -32.554856    33.604961    22.664241    40.194936 
50152000    282.05368    325.24948    301.09294   -32.863004    32.706765    24.156536    40.194667 
50156000    275.38836    327.79625    295.37766   -32.438406    33.246717    32.418595    40.194074 
50160000    276.43353    290.84529    296.41349   -30.458999    33.552522   -5.5681904    40.194083 
50164000    283.22313    343.41384    284.68592   -34.543824    33.621723    58.727915    40.195616 
50168000    269.63837    299.64532     285.0704   -31.945496    33.718595    14.574925    40.197196 
50172000    273.55768    322.01557     293.4733    -32.70839    33.198673    28.542274    40.195444 
50176000    266.70482    297.80488    273.59748   -32.860128    34.228788    24.207397    40.195095 
50180000    274.17309    316.18433    283.20808   -33.122922     34.29072    32.976253    40.194497 
50184000    276.91988    343.45951    291.81074   -33.286031    34.210298    51.648773    40.194947 
50188000    264.75288    310.47519    262.79256   -31.987453    35.375106    47.682626    40.195334 
50192000    260.67716    298.06549    281.09192   -32.176702    34.931165    16.973577    40.195327 
50196000    271.00498    320.23535    277.21727   -32.835682    33.809316    43.018088    40.195814 
50200000     279.5672    329.85951    293.16195   -33.159167    34.755097    36.697556    40.196613 
50204000    267.55344    316.16674    278.44958   -32.721103    34.478068    37.717158    40.197908 
50208000    277.94265    340.18126    280.93726   -33.042141    34.339375    59.244003    40.198422 
50212000    276.85119    337.55865    278.16084   -34.992557     33.99101    59.397807    40.198609 
50216000    267.87858     325.2716    273.73842   -33.775538    34.883142    51.533185    40.198434 
50220000    281.98446    338.90529    304.96536   -34.071346    34.976924    33.939931    40.198606 
50224000    261.27912    312.49763    275.80789   -33.076862     35.71178    36.689744    40.198989 
50228000    264.74443    307.47347    263.71376   -33.865449    34.964391    43.759713    40.200033 
50232000    271.96647    317.20609     293.9733   -33.996049    33.861346    23.232791    40.200301 
50236000    270.21071    321.67011    275.69155   -34.014732    35.746766    45.978567    40.200872 
50240000    264.57233    297.47002    275.99178   -33.608967    34.757557    21.478244    40.201516 
50244000    262.33942    293.52072    270.21662   -33.259125    35.657105    23.304098    40.199992 
50248000    266.89548    325.29349    275.78596   -34.603651    35.654976    49.507527    40.199557 
50252000    279.37261    312.90738    313.82386   -34.425063    33.810074  -0.91647649    40.198105 
50256000    268.98219     331.3183    254.52831   -34.417064    36.648655    76.789982    40.198883 
50260000     268.2964    329.72413    273.88135     -35.0172    35.309472     55.84278    40.199215 
50264000    274.71648    331.41918    284.71231   -36.019395    35.642172    46.706872    40.200671 
50268000    270.04866    323.91438    276.32785   -34.045779    35.432076    47.586529    40.200383 
50272000    261.73913    300.04314    277.79857   -33.103428    35.733441    22.244568    40.200264 
50276000    265.56761    302.69805     277.4433   -32.939347    36.395023    25.254745    40.199425 
50280000    267.66151    330.34269     265.7064   -34.960062     36.29832    64.636285    40.200514 
50284000    275.98279    326.09921    285.02203   -33.787796    34.041694    41.077172    40.200686 
50288000    271.99733    315.43192    284.43468   -33.068967    35.018931    30.997238    40.200457 
50292000    273.94147    300.05485    299.44286   -32.830698    34.214637   0.61198745    40.200883 
50296000    271.01124     324.6306    289.97757   -34.599157    33.913411    34.653026    40.201159 
50300000    269.77275    319.69399     278.5095   -33.161059      34.8993     41.18449    40.200902 
50304000     267.9698    321.72582    257.21223   -33.498194    35.552007    64.513586    40.200979 
50308000    279.76323    316.57787    301.50573   -33.505754    33.354222    15.072143    40.200119 
50312000     271.4508    304.83031    280.47731   -32.391578    35.275777    24.352999    40.199904 
50316000     274.9594    322.83896    294.93752   -34.200691    33.661448     27.90144     40.19994 
50320000    282.69288    347.86004     291.2852   -36.528179    35.059841    56.574845    40.200111 
50324000    271.41957    309.07088    292.72438   -34.390244    34.628166    16.346493    40.199865 
50328000    273.70874    326.69215     283.5498   -34.475855    33.382009    43.142345    40.199038 
50332000    269.47615    321.26528    248.57983   -34.708552     36.12206    72.685453    40.200074 
50336000    266.56867    319.22512    267.47113   -34.004599    35.538663    51.753991    40.199439 
50340000    271.12884    321.53267    269.10677   -35.201724    34.836213    52.425899     40.20016 
50344000     272.7475    304.42244     277.1708   -33.477062    35.346667    27.251641    40.200274 
50348000    279.94566    336.02336    282.13981   -35.713752    35.248633    53.883555    40.200377 
50352000     271.5805    321.78097    274.83945   -35.222267    34.492789    46.941522    40.200225 
50356000    271.32286    323.87158    274.90519   -35.487983    35.438223    48.966385    40.200952 
50360000       281.48    346.34066    270.16055   -36.691115    34.749587     76.18011    40.200702 
50364000     267.1094    327.96887    272.28417   -35.367408    35.356406    55.684691    40.200688 
50368000    265.78212    309.04476    268.78299   -34.611095     36.32321    40.261766    40.200944 
50372000    271.99531    325.10528    280.20986   -34.701009    34.848033    44.895413    40.201178 
50376000     266.1364    311.96304     262.5679   -34.597167     36.05428     49.39515     40.20113 
50380000     271.5518     300.1106    281.21982   -33.687927    35.235713     18.89078    40.200379 
50384000    270.57621    325.25156    273.98598   -35.408719    36.484424    51.265582    40.200154 
50388000    269.66146    317.48476    266.76174   -35.498006    36.856944    50.723019    40.201248 
50392000    265.60304    320.39018    283.92479   -33.412846    35.642325    36.465386    40.200387 
50396000     273.8003    316.79208    285.19078   -33.603711    34.735683    31.601299    40.201362 
50400000    276.66149    329.87639    284.06186   -35.763188    35.781695    45.814527    40.200278 
50401000    275.07113    306.43786    300.11432   -33.898794      34.9119    6.3235393    40.200278 
Loop time of 21709.9 on 4 procs for 16000000 steps with 1498 atoms

Performance: 15.919 ns/day, 1.508 hours/ns, 736.992 timesteps/s
99.6% CPU use with 4 MPI tasks x no OpenMP threads

MPI task timing breakdown:
Section |  min time  |  avg time  |  max time  |%varavg| %total
---------------------------------------------------------------
Pair    | 10843      | 14984      | 19249      |3319.1 | 69.02
Bond    | 67.851     | 105.01     | 140.4      | 345.2 |  0.48
Neigh   | 120.91     | 120.95     | 120.99     |   0.3 |  0.56
Comm    | 275.42     | 4260.1     | 8358.1     |6093.9 | 19.62
Output  | 7.8267     | 7.8399     | 7.8786     |   0.8 |  0.04
Modify  | 1159.4     | 1721.8     | 2313.8     |1014.6 |  7.93
Other   |            | 510.7      |            |       |  2.35

Nlocal:    374.5 ave 714 max 35 min
Histogram: 2 0 0 0 0 0 0 0 0 2
Nghost:    2374.75 ave 4258 max 496 min
Histogram: 2 0 0 0 0 0 0 0 0 2
Neighs:    13053.2 ave 25816 max 314 min
Histogram: 2 0 0 0 0 0 0 0 0 2

Total # of neighbors = 52213
Ave neighs/atom = 34.8551
Ave special neighs/atom = 0.518024
Neighbor list builds = 28838
Dangerous builds = 0

write_restart FINALCONFIG
WARNING: Using a manybody potential with bonds/angles/dihedrals and special_bond exclusions (../pair.cpp:218)
Neighbor list info ...
  update every 1 steps, delay 0 steps, check yes
  max neighbors/atom: 2000, page size: 100000
  master list distance cutoff = 16
  ghost atom cutoff = 16
  binsize = 8, bins = 3 3 23
  4 neighbor lists, perpetual/occasional/extra = 4 0 0
  (1) pair lj/cut, perpetual, skip from (4)
      attributes: half, newton on
      pair build: skip
      stencil: none
      bin: none
  (2) pair morse, perpetual, skip from (4)
      attributes: half, newton on
      pair build: skip
      stencil: none
      bin: none
  (3) pair eam, perpetual, skip from (4)
      attributes: half, newton on
      pair build: skip
      stencil: none
      bin: none
  (4) neighbor class addition, perpetual
      attributes: half, newton on
      pair build: half/bin/newton
      stencil: half/bin/3d/newton
      bin: standard

#and everyone lived happily ever after, THE END
Total wall time: 6:19:22
